<?xml version="1.0" encoding="UTF-8"?>

<!-- generated on Thu Jul 16 19:07:38 2020 by Eclipse SUMO Version v1_6_0+0474-c178882b35
<configuration xmlns:xsi="http://www.w3.org/2001/XMLSchema-instance" xsi:noNamespaceSchemaLocation="http://sumo.dlr.de/xsd/sumoConfiguration.xsd">

    <input>
        <net-file value="/usr/local/google/home/gilbertbahati/flow/flow/core/kernel/network/debug/cfg/grid-trail_20200716-1907361594926456.682315.net.xml"/>
        <route-files value="/usr/local/google/home/gilbertbahati/flow/flow/core/kernel/network/debug/cfg/grid-trail_20200716-1907361594926456.682315.rou.xml"/>
        <additional-files value="/usr/local/google/home/gilbertbahati/flow/flow/core/kernel/network/debug/cfg/grid-trail_20200716-1907361594926456.682315.add.xml"/>
    </input>

    <output>
        <tripinfo-output value="~/flow/data/grid-trail_20200716-1907361594926456.682315-emission.xml"/>
    </output>

    <time>
        <begin value="0"/>
        <step-length value="1"/>
    </time>

    <processing>
        <collision.check-junctions value="true"/>
        <time-to-teleport value="-1"/>
    </processing>

    <report>
        <no-step-log value="true"/>
    </report>

    <traci_server>
        <remote-port value="33483"/>
        <num-clients value="1"/>
    </traci_server>

    <random_number>
        <seed value="78113"/>
    </random_number>

    <gui_only>
        <gui-settings-file value="/usr/local/google/home/gilbertbahati/flow/flow/core/kernel/network/debug/cfg/grid-trail_20200716-1907361594926456.682315.gui.cfg"/>
        <tracker-interval value="1"/>
    </gui_only>

</configuration>
-->

<tripinfos xmlns:xsi="http://www.w3.org/2001/XMLSchema-instance" xsi:noNamespaceSchemaLocation="http://sumo.dlr.de/xsd/tripinfo_file.xsd">
    <tripinfo id="human_0" depart="1.00" departLane="left1_0_0" departPos="6.00" departSpeed="0.00" departDelay="0.00" arrival="45.00" arrivalLane="left0_0_0" arrivalPos="240.00" arrivalSpeed="11.80" duration="44.00" routeLength="492.80" waitingTime="0.00" waitingCount="0" stopTime="0.00" timeLoss="2.04" rerouteNo="0" devices="tripinfo_human_0" vType="human" speedFactor="1.07" vaporized=""/>
    <tripinfo id="flow_00.0" depart="4.00" departLane="left1_0_0" departPos="5.10" departSpeed="5.00" departDelay="3.00" arrival="49.00" arrivalLane="left0_0_0" arrivalPos="240.00" arrivalSpeed="11.79" duration="45.00" routeLength="493.70" waitingTime="0.00" waitingCount="0" stopTime="0.00" timeLoss="2.93" rerouteNo="0" devices="tripinfo_flow_00.0" vType="human" speedFactor="1.07" vaporized=""/>
    <tripinfo id="flow_10.0" depart="1.00" departLane="right0_0_0" departPos="5.10" departSpeed="5.00" departDelay="0.00" arrival="49.00" arrivalLane="right1_0_0" arrivalPos="240.00" arrivalSpeed="10.54" duration="48.00" routeLength="493.70" waitingTime="0.00" waitingCount="0" stopTime="0.00" timeLoss="0.53" rerouteNo="0" devices="tripinfo_flow_10.0" vType="human" speedFactor="0.96" vaporized=""/>
    <tripinfo id="flow_20.0" depart="1.00" departLane="bot0_0_0" departPos="5.10" departSpeed="5.00" departDelay="0.00" arrival="62.00" arrivalLane="bot0_1_0" arrivalPos="240.00" arrivalSpeed="11.67" duration="61.00" routeLength="493.70" waitingTime="9.00" waitingCount="1" stopTime="0.00" timeLoss="17.98" rerouteNo="0" devices="tripinfo_flow_20.0" vType="human" speedFactor="1.06" vaporized=""/>
    <tripinfo id="flow_30.0" depart="1.00" departLane="top0_1_0" departPos="5.10" departSpeed="5.00" departDelay="0.00" arrival="65.00" arrivalLane="top0_0_0" arrivalPos="240.00" arrivalSpeed="9.94" duration="64.00" routeLength="493.70" waitingTime="6.00" waitingCount="1" stopTime="0.00" timeLoss="14.11" rerouteNo="0" devices="tripinfo_flow_30.0" vType="human" speedFactor="0.90" vaporized=""/>
    <tripinfo id="flow_20.1" depart="7.00" departLane="bot0_0_0" departPos="5.10" departSpeed="5.00" departDelay="0.00" arrival="67.00" arrivalLane="bot0_1_0" arrivalPos="240.00" arrivalSpeed="10.53" duration="60.00" routeLength="493.70" waitingTime="3.00" waitingCount="1" stopTime="0.00" timeLoss="12.56" rerouteNo="0" devices="tripinfo_flow_20.1" vType="human" speedFactor="0.96" vaporized=""/>
    <tripinfo id="flow_30.1" depart="7.00" departLane="top0_1_0" departPos="5.10" departSpeed="5.00" departDelay="0.00" arrival="68.00" arrivalLane="top0_0_0" arrivalPos="240.00" arrivalSpeed="11.04" duration="61.00" routeLength="493.70" waitingTime="4.00" waitingCount="1" stopTime="0.00" timeLoss="15.70" rerouteNo="0" devices="tripinfo_flow_30.1" vType="human" speedFactor="1.01" vaporized=""/>
    <tripinfo id="flow_20.2" depart="13.00" departLane="bot0_0_0" departPos="5.10" departSpeed="5.00" departDelay="0.00" arrival="72.00" arrivalLane="bot0_1_0" arrivalPos="240.00" arrivalSpeed="9.58" duration="59.00" routeLength="493.70" waitingTime="0.00" waitingCount="0" stopTime="0.00" timeLoss="6.85" rerouteNo="0" devices="tripinfo_flow_20.2" vType="human" speedFactor="0.87" vaporized=""/>
    <tripinfo id="flow_30.2" depart="13.00" departLane="top0_1_0" departPos="5.10" departSpeed="5.00" departDelay="0.00" arrival="73.00" arrivalLane="top0_0_0" arrivalPos="240.00" arrivalSpeed="9.05" duration="60.00" routeLength="493.70" waitingTime="0.00" waitingCount="0" stopTime="0.00" timeLoss="5.22" rerouteNo="0" devices="tripinfo_flow_30.2" vType="human" speedFactor="0.82" vaporized=""/>
    <tripinfo id="flow_20.3" depart="19.00" departLane="bot0_0_0" departPos="5.10" departSpeed="5.00" departDelay="0.00" arrival="74.00" arrivalLane="bot0_1_0" arrivalPos="240.00" arrivalSpeed="10.43" duration="55.00" routeLength="493.70" waitingTime="0.00" waitingCount="0" stopTime="0.00" timeLoss="8.10" rerouteNo="0" devices="tripinfo_flow_20.3" vType="human" speedFactor="0.96" vaporized=""/>
    <tripinfo id="flow_30.3" depart="19.00" departLane="top0_1_0" departPos="5.10" departSpeed="5.00" departDelay="0.00" arrival="75.00" arrivalLane="top0_0_0" arrivalPos="240.00" arrivalSpeed="10.69" duration="56.00" routeLength="493.70" waitingTime="0.00" waitingCount="0" stopTime="0.00" timeLoss="10.95" rerouteNo="0" devices="tripinfo_flow_30.3" vType="human" speedFactor="1.00" vaporized=""/>
    <tripinfo id="flow_30.4" depart="25.00" departLane="top0_1_0" departPos="5.10" departSpeed="5.00" departDelay="0.00" arrival="77.00" arrivalLane="top0_0_0" arrivalPos="240.00" arrivalSpeed="11.51" duration="52.00" routeLength="493.70" waitingTime="0.00" waitingCount="0" stopTime="0.00" timeLoss="10.78" rerouteNo="0" devices="tripinfo_flow_30.4" vType="human" speedFactor="1.10" vaporized=""/>
    <tripinfo id="flow_20.4" depart="25.00" departLane="bot0_0_0" departPos="5.10" departSpeed="5.00" departDelay="0.00" arrival="78.00" arrivalLane="bot0_1_0" arrivalPos="240.00" arrivalSpeed="9.92" duration="53.00" routeLength="493.70" waitingTime="0.00" waitingCount="0" stopTime="0.00" timeLoss="2.35" rerouteNo="0" devices="tripinfo_flow_20.4" vType="human" speedFactor="0.90" vaporized=""/>
    <tripinfo id="flow_20.5" depart="31.00" departLane="bot0_0_0" departPos="5.10" departSpeed="5.00" departDelay="0.00" arrival="80.00" arrivalLane="bot0_1_0" arrivalPos="240.00" arrivalSpeed="10.53" duration="49.00" routeLength="493.70" waitingTime="0.00" waitingCount="0" stopTime="0.00" timeLoss="2.47" rerouteNo="0" devices="tripinfo_flow_20.5" vType="human" speedFactor="0.97" vaporized=""/>
    <tripinfo id="flow_30.5" depart="31.00" departLane="top0_1_0" departPos="5.10" departSpeed="5.00" departDelay="0.00" arrival="80.00" arrivalLane="top0_0_0" arrivalPos="240.00" arrivalSpeed="10.63" duration="49.00" routeLength="493.70" waitingTime="0.00" waitingCount="0" stopTime="0.00" timeLoss="2.19" rerouteNo="0" devices="tripinfo_flow_30.5" vType="human" speedFactor="0.97" vaporized=""/>
    <tripinfo id="flow_30.6" depart="37.00" departLane="top0_1_0" departPos="5.10" departSpeed="5.00" departDelay="0.00" arrival="83.00" arrivalLane="top0_0_0" arrivalPos="240.00" arrivalSpeed="11.42" duration="46.00" routeLength="493.70" waitingTime="0.00" waitingCount="0" stopTime="0.00" timeLoss="2.23" rerouteNo="0" devices="tripinfo_flow_30.6" vType="human" speedFactor="1.04" vaporized=""/>
    <tripinfo id="flow_20.6" depart="37.00" departLane="bot0_0_0" departPos="5.10" departSpeed="5.00" departDelay="0.00" arrival="87.00" arrivalLane="bot0_1_0" arrivalPos="240.00" arrivalSpeed="10.12" duration="50.00" routeLength="493.70" waitingTime="0.00" waitingCount="0" stopTime="0.00" timeLoss="0.89" rerouteNo="0" devices="tripinfo_flow_20.6" vType="human" speedFactor="0.92" vaporized=""/>
    <tripinfo id="flow_30.7" depart="43.00" departLane="top0_1_0" departPos="5.10" departSpeed="5.00" departDelay="0.00" arrival="87.00" arrivalLane="top0_0_0" arrivalPos="240.00" arrivalSpeed="11.69" duration="44.00" routeLength="493.70" waitingTime="0.00" waitingCount="0" stopTime="0.00" timeLoss="1.43" rerouteNo="0" devices="tripinfo_flow_30.7" vType="human" speedFactor="1.06" vaporized=""/>
    <tripinfo id="flow_20.7" depart="43.00" departLane="bot0_0_0" departPos="5.10" departSpeed="5.00" departDelay="0.00" arrival="89.00" arrivalLane="bot0_1_0" arrivalPos="240.00" arrivalSpeed="11.64" duration="46.00" routeLength="493.70" waitingTime="0.00" waitingCount="0" stopTime="0.00" timeLoss="4.53" rerouteNo="0" devices="tripinfo_flow_20.7" vType="human" speedFactor="1.09" vaporized=""/>
    <tripinfo id="flow_30.8" depart="49.00" departLane="top0_1_0" departPos="5.10" departSpeed="5.00" departDelay="0.00" arrival="94.00" arrivalLane="top0_0_0" arrivalPos="240.00" arrivalSpeed="11.40" duration="45.00" routeLength="493.70" waitingTime="0.00" waitingCount="0" stopTime="0.00" timeLoss="1.04" rerouteNo="0" devices="tripinfo_flow_30.8" vType="human" speedFactor="1.04" vaporized=""/>
    <tripinfo id="flow_20.8" depart="49.00" departLane="bot0_0_0" departPos="5.10" departSpeed="5.00" departDelay="0.00" arrival="97.00" arrivalLane="bot0_1_0" arrivalPos="240.00" arrivalSpeed="10.49" duration="48.00" routeLength="493.70" waitingTime="0.00" waitingCount="0" stopTime="0.00" timeLoss="0.79" rerouteNo="0" devices="tripinfo_flow_20.8" vType="human" speedFactor="0.95" vaporized=""/>
    <tripinfo id="flow_20.9" depart="55.00" departLane="bot0_0_0" departPos="5.10" departSpeed="5.00" departDelay="0.00" arrival="105.00" arrivalLane="bot0_1_0" arrivalPos="240.00" arrivalSpeed="10.22" duration="50.00" routeLength="493.70" waitingTime="0.00" waitingCount="0" stopTime="0.00" timeLoss="0.88" rerouteNo="0" devices="tripinfo_flow_20.9" vType="human" speedFactor="0.93" vaporized=""/>
    <tripinfo id="flow_30.9" depart="55.00" departLane="top0_1_0" departPos="5.10" departSpeed="5.00" departDelay="0.00" arrival="106.00" arrivalLane="top0_0_0" arrivalPos="240.00" arrivalSpeed="9.94" duration="51.00" routeLength="493.70" waitingTime="0.00" waitingCount="0" stopTime="0.00" timeLoss="0.61" rerouteNo="0" devices="tripinfo_flow_30.9" vType="human" speedFactor="0.90" vaporized=""/>
    <tripinfo id="flow_20.10" depart="61.00" departLane="bot0_0_0" departPos="5.10" departSpeed="5.00" departDelay="0.00" arrival="107.00" arrivalLane="bot0_1_0" arrivalPos="240.00" arrivalSpeed="11.96" duration="46.00" routeLength="493.70" waitingTime="0.00" waitingCount="0" stopTime="0.00" timeLoss="5.40" rerouteNo="0" devices="tripinfo_flow_20.10" vType="human" speedFactor="1.13" vaporized=""/>
    <tripinfo id="flow_30.10" depart="61.00" departLane="top0_1_0" departPos="5.10" departSpeed="5.00" departDelay="0.00" arrival="108.00" arrivalLane="top0_0_0" arrivalPos="240.00" arrivalSpeed="11.20" duration="47.00" routeLength="493.70" waitingTime="0.00" waitingCount="0" stopTime="0.00" timeLoss="3.37" rerouteNo="0" devices="tripinfo_flow_30.10" vType="human" speedFactor="1.04" vaporized=""/>
    <tripinfo id="flow_20.11" depart="67.00" departLane="bot0_0_0" departPos="5.10" departSpeed="5.00" departDelay="0.00" arrival="114.00" arrivalLane="bot0_1_0" arrivalPos="240.00" arrivalSpeed="10.87" duration="47.00" routeLength="493.70" waitingTime="0.00" waitingCount="0" stopTime="0.00" timeLoss="0.89" rerouteNo="0" devices="tripinfo_flow_20.11" vType="human" speedFactor="0.99" vaporized=""/>
    <tripinfo id="flow_30.11" depart="67.00" departLane="top0_1_0" departPos="5.10" departSpeed="5.00" departDelay="0.00" arrival="116.00" arrivalLane="top0_0_0" arrivalPos="240.00" arrivalSpeed="10.33" duration="49.00" routeLength="493.70" waitingTime="0.00" waitingCount="0" stopTime="0.00" timeLoss="0.80" rerouteNo="0" devices="tripinfo_flow_30.11" vType="human" speedFactor="0.94" vaporized=""/>
    <tripinfo id="flow_30.12" depart="73.00" departLane="top0_1_0" departPos="5.10" departSpeed="5.00" departDelay="0.00" arrival="120.00" arrivalLane="top0_0_0" arrivalPos="240.00" arrivalSpeed="10.87" duration="47.00" routeLength="493.70" waitingTime="0.00" waitingCount="0" stopTime="0.00" timeLoss="1.46" rerouteNo="0" devices="tripinfo_flow_30.12" vType="human" speedFactor="0.99" vaporized=""/>
    <tripinfo id="flow_30.13" depart="79.00" departLane="top0_1_0" departPos="5.10" departSpeed="5.00" departDelay="0.00" arrival="128.00" arrivalLane="top0_0_0" arrivalPos="240.00" arrivalSpeed="10.35" duration="49.00" routeLength="493.70" waitingTime="0.00" waitingCount="0" stopTime="0.00" timeLoss="0.85" rerouteNo="0" devices="tripinfo_flow_30.13" vType="human" speedFactor="0.94" vaporized=""/>
    <tripinfo id="flow_30.14" depart="85.00" departLane="top0_1_0" departPos="5.10" departSpeed="5.00" departDelay="0.00" arrival="130.00" arrivalLane="top0_0_0" arrivalPos="240.00" arrivalSpeed="12.64" duration="45.00" routeLength="493.70" waitingTime="0.00" waitingCount="0" stopTime="0.00" timeLoss="7.60" rerouteNo="0" devices="tripinfo_flow_30.14" vType="human" speedFactor="1.22" vaporized=""/>
    <tripinfo id="flow_30.15" depart="91.00" departLane="top0_1_0" departPos="5.10" departSpeed="5.00" departDelay="0.00" arrival="133.00" arrivalLane="top0_0_0" arrivalPos="240.00" arrivalSpeed="12.61" duration="42.00" routeLength="493.70" waitingTime="0.00" waitingCount="0" stopTime="0.00" timeLoss="2.18" rerouteNo="0" devices="tripinfo_flow_30.15" vType="human" speedFactor="1.15" vaporized=""/>
    <tripinfo id="flow_20.12" depart="73.00" departLane="bot0_0_0" departPos="5.10" departSpeed="5.00" departDelay="0.00" arrival="134.00" arrivalLane="bot0_1_0" arrivalPos="240.00" arrivalSpeed="8.21" duration="61.00" routeLength="493.70" waitingTime="0.00" waitingCount="0" stopTime="0.00" timeLoss="0.29" rerouteNo="0" devices="tripinfo_flow_20.12" vType="human" speedFactor="0.75" vaporized=""/>
    <tripinfo id="flow_20.13" depart="79.00" departLane="bot0_0_0" departPos="5.10" departSpeed="5.00" departDelay="0.00" arrival="136.00" arrivalLane="bot0_1_0" arrivalPos="240.00" arrivalSpeed="10.08" duration="57.00" routeLength="493.70" waitingTime="0.00" waitingCount="0" stopTime="0.00" timeLoss="9.02" rerouteNo="0" devices="tripinfo_flow_20.13" vType="human" speedFactor="0.95" vaporized=""/>
    <tripinfo id="flow_20.14" depart="85.00" departLane="bot0_0_0" departPos="5.10" departSpeed="5.00" departDelay="0.00" arrival="138.00" arrivalLane="bot0_1_0" arrivalPos="240.00" arrivalSpeed="10.36" duration="53.00" routeLength="493.70" waitingTime="0.00" waitingCount="0" stopTime="0.00" timeLoss="6.26" rerouteNo="0" devices="tripinfo_flow_20.14" vType="human" speedFactor="0.97" vaporized=""/>
    <tripinfo id="flow_20.15" depart="91.00" departLane="bot0_0_0" departPos="5.10" departSpeed="5.00" departDelay="0.00" arrival="140.00" arrivalLane="bot0_1_0" arrivalPos="240.00" arrivalSpeed="11.65" duration="49.00" routeLength="493.70" waitingTime="0.00" waitingCount="0" stopTime="0.00" timeLoss="8.95" rerouteNo="0" devices="tripinfo_flow_20.15" vType="human" speedFactor="1.14" vaporized=""/>
    <tripinfo id="flow_10.1" depart="21.00" departLane="right0_0_0" departPos="5.10" departSpeed="5.00" departDelay="0.00" arrival="146.00" arrivalLane="right1_0_0" arrivalPos="240.00" arrivalSpeed="10.40" duration="125.00" routeLength="493.70" waitingTime="69.00" waitingCount="1" stopTime="0.00" timeLoss="77.26" rerouteNo="0" devices="tripinfo_flow_10.1" vType="human" speedFactor="0.95" vaporized=""/>
    <tripinfo id="flow_00.1" depart="21.00" departLane="left1_0_0" departPos="5.10" departSpeed="5.00" departDelay="0.00" arrival="148.00" arrivalLane="left0_0_0" arrivalPos="240.00" arrivalSpeed="9.74" duration="127.00" routeLength="493.70" waitingTime="68.00" waitingCount="1" stopTime="0.00" timeLoss="75.59" rerouteNo="0" devices="tripinfo_flow_00.1" vType="human" speedFactor="0.89" vaporized=""/>
    <tripinfo id="flow_10.2" depart="41.00" departLane="right0_0_0" departPos="5.10" departSpeed="5.00" departDelay="0.00" arrival="150.00" arrivalLane="right1_0_0" arrivalPos="240.00" arrivalSpeed="10.17" duration="109.00" routeLength="493.70" waitingTime="50.00" waitingCount="1" stopTime="0.00" timeLoss="60.18" rerouteNo="0" devices="tripinfo_flow_10.2" vType="human" speedFactor="0.92" vaporized=""/>
    <tripinfo id="flow_00.2" depart="41.00" departLane="left1_0_0" departPos="5.10" departSpeed="5.00" departDelay="0.00" arrival="151.00" arrivalLane="left0_0_0" arrivalPos="240.00" arrivalSpeed="9.88" duration="110.00" routeLength="493.70" waitingTime="50.00" waitingCount="1" stopTime="0.00" timeLoss="59.87" rerouteNo="0" devices="tripinfo_flow_00.2" vType="human" speedFactor="0.90" vaporized=""/>
    <tripinfo id="flow_10.3" depart="61.00" departLane="right0_0_0" departPos="5.10" departSpeed="5.00" departDelay="0.00" arrival="152.00" arrivalLane="right1_0_0" arrivalPos="240.00" arrivalSpeed="11.10" duration="91.00" routeLength="493.70" waitingTime="34.00" waitingCount="1" stopTime="0.00" timeLoss="47.31" rerouteNo="0" devices="tripinfo_flow_10.3" vType="human" speedFactor="1.03" vaporized=""/>
    <tripinfo id="flow_00.3" depart="61.00" departLane="left1_0_0" departPos="5.10" departSpeed="5.00" departDelay="0.00" arrival="155.00" arrivalLane="left0_0_0" arrivalPos="240.00" arrivalSpeed="9.48" duration="94.00" routeLength="493.70" waitingTime="31.00" waitingCount="1" stopTime="0.00" timeLoss="41.39" rerouteNo="0" devices="tripinfo_flow_00.3" vType="human" speedFactor="0.86" vaporized=""/>
    <tripinfo id="flow_10.4" depart="81.00" departLane="right0_0_0" departPos="5.10" departSpeed="5.00" departDelay="0.00" arrival="156.00" arrivalLane="right1_0_0" arrivalPos="240.00" arrivalSpeed="10.30" duration="75.00" routeLength="493.70" waitingTime="14.00" waitingCount="1" stopTime="0.00" timeLoss="26.18" rerouteNo="0" devices="tripinfo_flow_10.4" vType="human" speedFactor="0.94" vaporized=""/>
    <tripinfo id="flow_00.4" depart="81.00" departLane="left1_0_0" departPos="5.10" departSpeed="5.00" departDelay="0.00" arrival="157.00" arrivalLane="left0_0_0" arrivalPos="240.00" arrivalSpeed="11.01" duration="76.00" routeLength="493.70" waitingTime="15.00" waitingCount="1" stopTime="0.00" timeLoss="32.09" rerouteNo="0" devices="tripinfo_flow_00.4" vType="human" speedFactor="1.03" vaporized=""/>
    <tripinfo id="flow_10.5" depart="101.00" departLane="right0_0_0" departPos="5.10" departSpeed="5.00" departDelay="0.00" arrival="158.00" arrivalLane="right1_0_0" arrivalPos="240.00" arrivalSpeed="10.57" duration="57.00" routeLength="493.70" waitingTime="0.00" waitingCount="0" stopTime="0.00" timeLoss="10.47" rerouteNo="0" devices="tripinfo_flow_10.5" vType="human" speedFactor="0.97" vaporized=""/>
    <tripinfo id="flow_00.5" depart="101.00" departLane="left1_0_0" departPos="5.10" departSpeed="5.00" departDelay="0.00" arrival="160.00" arrivalLane="left0_0_0" arrivalPos="240.00" arrivalSpeed="10.22" duration="59.00" routeLength="493.70" waitingTime="0.00" waitingCount="0" stopTime="0.00" timeLoss="9.95" rerouteNo="0" devices="tripinfo_flow_00.5" vType="human" speedFactor="0.93" vaporized=""/>
    <tripinfo id="flow_10.6" depart="121.00" departLane="right0_0_0" departPos="5.10" departSpeed="5.00" departDelay="0.00" arrival="162.00" arrivalLane="right1_0_0" arrivalPos="240.00" arrivalSpeed="12.54" duration="41.00" routeLength="493.70" waitingTime="0.00" waitingCount="0" stopTime="0.00" timeLoss="1.40" rerouteNo="0" devices="tripinfo_flow_10.6" vType="human" speedFactor="1.14" vaporized=""/>
    <tripinfo id="flow_00.6" depart="121.00" departLane="left1_0_0" departPos="5.10" departSpeed="5.00" departDelay="0.00" arrival="169.00" arrivalLane="left0_0_0" arrivalPos="240.00" arrivalSpeed="10.57" duration="48.00" routeLength="493.70" waitingTime="0.00" waitingCount="0" stopTime="0.00" timeLoss="0.70" rerouteNo="0" devices="tripinfo_flow_00.6" vType="human" speedFactor="0.96" vaporized=""/>
    <tripinfo id="flow_20.16" depart="97.00" departLane="bot0_0_0" departPos="5.10" departSpeed="5.00" departDelay="0.00" arrival="183.00" arrivalLane="bot0_1_0" arrivalPos="240.00" arrivalSpeed="10.83" duration="86.00" routeLength="493.70" waitingTime="32.00" waitingCount="1" stopTime="0.00" timeLoss="40.24" rerouteNo="0" devices="tripinfo_flow_20.16" vType="human" speedFactor="0.98" vaporized=""/>
    <tripinfo id="flow_30.16" depart="97.00" departLane="top0_1_0" departPos="5.10" departSpeed="5.00" departDelay="0.00" arrival="183.00" arrivalLane="top0_0_0" arrivalPos="240.00" arrivalSpeed="10.99" duration="86.00" routeLength="493.70" waitingTime="32.00" waitingCount="1" stopTime="0.00" timeLoss="40.58" rerouteNo="0" devices="tripinfo_flow_30.16" vType="human" speedFactor="1.00" vaporized=""/>
    <tripinfo id="flow_20.17" depart="103.00" departLane="bot0_0_0" departPos="5.10" departSpeed="5.00" departDelay="0.00" arrival="187.00" arrivalLane="bot0_1_0" arrivalPos="240.00" arrivalSpeed="10.89" duration="84.00" routeLength="493.70" waitingTime="28.00" waitingCount="1" stopTime="0.00" timeLoss="37.97" rerouteNo="0" devices="tripinfo_flow_20.17" vType="human" speedFactor="0.99" vaporized=""/>
    <tripinfo id="flow_30.17" depart="103.00" departLane="top0_1_0" departPos="5.10" departSpeed="5.00" departDelay="0.00" arrival="189.00" arrivalLane="top0_0_0" arrivalPos="240.00" arrivalSpeed="9.74" duration="86.00" routeLength="493.70" waitingTime="25.00" waitingCount="1" stopTime="0.00" timeLoss="34.61" rerouteNo="0" devices="tripinfo_flow_30.17" vType="human" speedFactor="0.89" vaporized=""/>
    <tripinfo id="flow_20.18" depart="109.00" departLane="bot0_0_0" departPos="5.10" departSpeed="5.00" departDelay="0.00" arrival="190.00" arrivalLane="bot0_1_0" arrivalPos="240.00" arrivalSpeed="11.07" duration="81.00" routeLength="493.70" waitingTime="23.00" waitingCount="1" stopTime="0.00" timeLoss="35.65" rerouteNo="0" devices="tripinfo_flow_20.18" vType="human" speedFactor="1.01" vaporized=""/>
    <tripinfo id="flow_20.19" depart="115.00" departLane="bot0_0_0" departPos="5.10" departSpeed="5.00" departDelay="0.00" arrival="192.00" arrivalLane="bot0_1_0" arrivalPos="240.00" arrivalSpeed="11.80" duration="77.00" routeLength="493.70" waitingTime="20.00" waitingCount="1" stopTime="0.00" timeLoss="35.47" rerouteNo="0" devices="tripinfo_flow_20.19" vType="human" speedFactor="1.10" vaporized=""/>
    <tripinfo id="flow_30.18" depart="109.00" departLane="top0_1_0" departPos="5.10" departSpeed="5.00" departDelay="0.00" arrival="193.00" arrivalLane="top0_0_0" arrivalPos="240.00" arrivalSpeed="9.52" duration="84.00" routeLength="493.70" waitingTime="21.00" waitingCount="1" stopTime="0.00" timeLoss="31.31" rerouteNo="0" devices="tripinfo_flow_30.18" vType="human" speedFactor="0.87" vaporized=""/>
    <tripinfo id="flow_20.20" depart="121.00" departLane="bot0_0_0" departPos="5.10" departSpeed="5.00" departDelay="0.00" arrival="194.00" arrivalLane="bot0_1_0" arrivalPos="240.00" arrivalSpeed="11.29" duration="73.00" routeLength="493.70" waitingTime="15.00" waitingCount="1" stopTime="0.00" timeLoss="29.69" rerouteNo="0" devices="tripinfo_flow_20.20" vType="human" speedFactor="1.04" vaporized=""/>
    <tripinfo id="flow_30.19" depart="115.00" departLane="top0_1_0" departPos="5.10" departSpeed="5.00" departDelay="0.00" arrival="195.00" arrivalLane="top0_0_0" arrivalPos="240.00" arrivalSpeed="10.22" duration="80.00" routeLength="493.70" waitingTime="18.00" waitingCount="1" stopTime="0.00" timeLoss="31.96" rerouteNo="0" devices="tripinfo_flow_30.19" vType="human" speedFactor="0.94" vaporized=""/>
    <tripinfo id="flow_30.20" depart="121.00" departLane="top0_1_0" departPos="5.10" departSpeed="5.00" departDelay="0.00" arrival="197.00" arrivalLane="top0_0_0" arrivalPos="240.00" arrivalSpeed="11.16" duration="76.00" routeLength="493.70" waitingTime="15.00" waitingCount="1" stopTime="0.00" timeLoss="32.87" rerouteNo="0" devices="tripinfo_flow_30.20" vType="human" speedFactor="1.05" vaporized=""/>
    <tripinfo id="flow_20.21" depart="127.00" departLane="bot0_0_0" departPos="5.10" departSpeed="5.00" departDelay="0.00" arrival="198.00" arrivalLane="bot0_1_0" arrivalPos="240.00" arrivalSpeed="9.87" duration="71.00" routeLength="493.70" waitingTime="9.00" waitingCount="1" stopTime="0.00" timeLoss="20.84" rerouteNo="0" devices="tripinfo_flow_20.21" vType="human" speedFactor="0.90" vaporized=""/>
    <tripinfo id="flow_30.21" depart="127.00" departLane="top0_1_0" departPos="5.10" departSpeed="5.00" departDelay="0.00" arrival="199.00" arrivalLane="top0_0_0" arrivalPos="240.00" arrivalSpeed="11.24" duration="72.00" routeLength="493.70" waitingTime="11.00" waitingCount="1" stopTime="0.00" timeLoss="29.16" rerouteNo="0" devices="tripinfo_flow_30.21" vType="human" speedFactor="1.05" vaporized=""/>
    <tripinfo id="flow_20.22" depart="133.00" departLane="bot0_0_0" departPos="5.10" departSpeed="5.00" departDelay="0.00" arrival="200.00" arrivalLane="bot0_1_0" arrivalPos="240.00" arrivalSpeed="11.48" duration="67.00" routeLength="493.70" waitingTime="7.00" waitingCount="1" stopTime="0.00" timeLoss="25.30" rerouteNo="0" devices="tripinfo_flow_20.22" vType="human" speedFactor="1.08" vaporized=""/>
    <tripinfo id="flow_30.22" depart="133.00" departLane="top0_1_0" departPos="5.10" departSpeed="5.00" departDelay="0.00" arrival="202.00" arrivalLane="top0_0_0" arrivalPos="240.00" arrivalSpeed="10.54" duration="69.00" routeLength="493.70" waitingTime="6.00" waitingCount="1" stopTime="0.00" timeLoss="21.57" rerouteNo="0" devices="tripinfo_flow_30.22" vType="human" speedFactor="0.96" vaporized=""/>
    <tripinfo id="flow_20.23" depart="139.00" departLane="bot0_0_0" departPos="5.10" departSpeed="5.00" departDelay="0.00" arrival="204.00" arrivalLane="bot0_1_0" arrivalPos="240.00" arrivalSpeed="9.97" duration="65.00" routeLength="493.70" waitingTime="0.00" waitingCount="0" stopTime="0.00" timeLoss="14.55" rerouteNo="0" devices="tripinfo_flow_20.23" vType="human" speedFactor="0.91" vaporized=""/>
    <tripinfo id="flow_30.23" depart="139.00" departLane="top0_1_0" departPos="5.10" departSpeed="5.00" departDelay="0.00" arrival="204.00" arrivalLane="top0_0_0" arrivalPos="240.00" arrivalSpeed="11.14" duration="65.00" routeLength="493.70" waitingTime="2.00" waitingCount="1" stopTime="0.00" timeLoss="21.18" rerouteNo="0" devices="tripinfo_flow_30.23" vType="human" speedFactor="1.04" vaporized=""/>
    <tripinfo id="flow_20.24" depart="145.00" departLane="bot0_0_0" departPos="5.10" departSpeed="5.00" departDelay="0.00" arrival="206.00" arrivalLane="bot0_1_0" arrivalPos="240.00" arrivalSpeed="11.43" duration="61.00" routeLength="493.70" waitingTime="0.00" waitingCount="0" stopTime="0.00" timeLoss="18.36" rerouteNo="0" devices="tripinfo_flow_20.24" vType="human" speedFactor="1.07" vaporized=""/>
    <tripinfo id="flow_20.25" depart="151.00" departLane="bot0_0_0" departPos="5.10" departSpeed="5.00" departDelay="0.00" arrival="208.00" arrivalLane="bot0_1_0" arrivalPos="240.00" arrivalSpeed="10.75" duration="57.00" routeLength="493.70" waitingTime="0.00" waitingCount="0" stopTime="0.00" timeLoss="11.28" rerouteNo="0" devices="tripinfo_flow_20.25" vType="human" speedFactor="0.99" vaporized=""/>
    <tripinfo id="flow_30.24" depart="145.00" departLane="top0_1_0" departPos="5.10" departSpeed="5.00" departDelay="0.00" arrival="209.00" arrivalLane="top0_0_0" arrivalPos="240.00" arrivalSpeed="8.74" duration="64.00" routeLength="493.70" waitingTime="0.00" waitingCount="0" stopTime="0.00" timeLoss="6.56" rerouteNo="0" devices="tripinfo_flow_30.24" vType="human" speedFactor="0.79" vaporized=""/>
    <tripinfo id="flow_30.25" depart="151.00" departLane="top0_1_0" departPos="5.10" departSpeed="5.00" departDelay="0.00" arrival="211.00" arrivalLane="top0_0_0" arrivalPos="240.00" arrivalSpeed="10.98" duration="60.00" routeLength="493.70" waitingTime="0.00" waitingCount="0" stopTime="0.00" timeLoss="16.30" rerouteNo="0" devices="tripinfo_flow_30.25" vType="human" speedFactor="1.05" vaporized=""/>
    <tripinfo id="flow_20.26" depart="157.00" departLane="bot0_0_0" departPos="5.10" departSpeed="5.00" departDelay="0.00" arrival="212.00" arrivalLane="bot0_1_0" arrivalPos="240.00" arrivalSpeed="9.56" duration="55.00" routeLength="493.70" waitingTime="0.00" waitingCount="0" stopTime="0.00" timeLoss="2.48" rerouteNo="0" devices="tripinfo_flow_20.26" vType="human" speedFactor="0.87" vaporized=""/>
    <tripinfo id="flow_30.26" depart="157.00" departLane="top0_1_0" departPos="5.10" departSpeed="5.00" departDelay="0.00" arrival="213.00" arrivalLane="top0_0_0" arrivalPos="240.00" arrivalSpeed="11.13" duration="56.00" routeLength="493.70" waitingTime="0.00" waitingCount="0" stopTime="0.00" timeLoss="12.50" rerouteNo="0" devices="tripinfo_flow_30.26" vType="human" speedFactor="1.05" vaporized=""/>
    <tripinfo id="flow_20.27" depart="163.00" departLane="bot0_0_0" departPos="5.10" departSpeed="5.00" departDelay="0.00" arrival="214.00" arrivalLane="bot0_1_0" arrivalPos="240.00" arrivalSpeed="10.36" duration="51.00" routeLength="493.70" waitingTime="0.00" waitingCount="0" stopTime="0.00" timeLoss="3.58" rerouteNo="0" devices="tripinfo_flow_20.27" vType="human" speedFactor="0.95" vaporized=""/>