<?xml version="1.0" encoding="UTF-8"?>

<!-- generated on Wed 15 Jul 2020 08:07:55 PM UTC by Eclipse SUMO GUI Version v1_6_0+0474-c178882b35
<configuration xmlns:xsi="http://www.w3.org/2001/XMLSchema-instance" xsi:noNamespaceSchemaLocation="http://sumo.dlr.de/xsd/sumoConfiguration.xsd">

    <input>
        <net-file value="/usr/local/google/home/gilbertbahati/flow/flow/core/kernel/network/debug/cfg/grid-trail_20200715-2007521594843672.792466.net.xml"/>
        <route-files value="/usr/local/google/home/gilbertbahati/flow/flow/core/kernel/network/debug/cfg/grid-trail_20200715-2007521594843672.792466.rou.xml"/>
        <additional-files value="/usr/local/google/home/gilbertbahati/flow/flow/core/kernel/network/debug/cfg/grid-trail_20200715-2007521594843672.792466.add.xml"/>
    </input>

    <output>
        <tripinfo-output value="~/flow/data/grid-trail_20200715-2007521594843672.792466-emission.xml"/>
    </output>

    <time>
        <begin value="0"/>
        <step-length value="1"/>
    </time>

    <processing>
        <collision.check-junctions value="true"/>
        <time-to-teleport value="-1"/>
    </processing>

    <report>
        <no-step-log value="true"/>
    </report>

    <traci_server>
        <remote-port value="49869"/>
        <num-clients value="1"/>
    </traci_server>

    <gui_only>
        <gui-settings-file value="/usr/local/google/home/gilbertbahati/flow/flow/core/kernel/network/debug/cfg/grid-trail_20200715-2007521594843672.792466.gui.cfg"/>
        <tracker-interval value="1"/>
    </gui_only>

</configuration>
-->

<tripinfos xmlns:xsi="http://www.w3.org/2001/XMLSchema-instance" xsi:noNamespaceSchemaLocation="http://sumo.dlr.de/xsd/tripinfo_file.xsd">
    <tripinfo id="flow_30.0" depart="1.00" departLane="top0_1_0" departPos="5.10" departSpeed="5.00" departDelay="0.00" arrival="50.00" arrivalLane="top0_0_0" arrivalPos="240.00" arrivalSpeed="11.91" duration="49.00" routeLength="493.70" waitingTime="0.00" waitingCount="0" stopTime="0.00" timeLoss="7.30" rerouteNo="0" devices="tripinfo_flow_30.0" vType="human" speedFactor="1.08" vaporized=""/>
    <tripinfo id="flow_20.0" depart="1.00" departLane="bot0_0_0" departPos="5.10" departSpeed="5.00" departDelay="0.00" arrival="52.00" arrivalLane="bot0_1_0" arrivalPos="240.00" arrivalSpeed="11.11" duration="51.00" routeLength="493.70" waitingTime="0.00" waitingCount="0" stopTime="0.00" timeLoss="5.60" rerouteNo="0" devices="tripinfo_flow_20.0" vType="human" speedFactor="1.01" vaporized=""/>
    <tripinfo id="flow_20.1" depart="7.00" departLane="bot0_0_0" departPos="5.10" departSpeed="5.00" departDelay="0.00" arrival="55.00" arrivalLane="bot0_1_0" arrivalPos="240.00" arrivalSpeed="11.31" duration="48.00" routeLength="493.70" waitingTime="0.00" waitingCount="0" stopTime="0.00" timeLoss="3.68" rerouteNo="0" devices="tripinfo_flow_20.1" vType="human" speedFactor="1.03" vaporized=""/>
    <tripinfo id="human_0" depart="1.00" departLane="left1_0_0" departPos="6.00" departSpeed="0.00" departDelay="0.00" arrival="60.00" arrivalLane="left0_0_0" arrivalPos="240.00" arrivalSpeed="11.66" duration="59.00" routeLength="492.80" waitingTime="6.00" waitingCount="1" stopTime="0.00" timeLoss="16.03" rerouteNo="0" devices="tripinfo_human_0" vType="human" speedFactor="1.06" vaporized=""/>
    <tripinfo id="flow_10.0" depart="1.00" departLane="right0_0_0" departPos="5.10" departSpeed="5.00" departDelay="0.00" arrival="62.00" arrivalLane="right1_0_0" arrivalPos="240.00" arrivalSpeed="10.32" duration="61.00" routeLength="493.70" waitingTime="5.00" waitingCount="1" stopTime="0.00" timeLoss="13.06" rerouteNo="0" devices="tripinfo_flow_10.0" vType="human" speedFactor="0.94" vaporized=""/>
    <tripinfo id="flow_00.0" depart="4.00" departLane="left1_0_0" departPos="5.10" departSpeed="5.00" departDelay="3.00" arrival="63.00" arrivalLane="left0_0_0" arrivalPos="240.00" arrivalSpeed="11.64" duration="59.00" routeLength="493.70" waitingTime="4.00" waitingCount="1" stopTime="0.00" timeLoss="16.40" rerouteNo="0" devices="tripinfo_flow_00.0" vType="human" speedFactor="1.06" vaporized=""/>
    <tripinfo id="flow_20.2" depart="13.00" departLane="bot0_0_0" departPos="5.10" departSpeed="5.00" departDelay="0.00" arrival="69.00" arrivalLane="bot0_1_0" arrivalPos="240.00" arrivalSpeed="11.50" duration="56.00" routeLength="493.70" waitingTime="4.00" waitingCount="1" stopTime="0.00" timeLoss="12.66" rerouteNo="0" devices="tripinfo_flow_20.2" vType="human" speedFactor="1.05" vaporized=""/>
    <tripinfo id="flow_30.1" depart="7.00" departLane="top0_1_0" departPos="5.10" departSpeed="5.00" departDelay="0.00" arrival="74.00" arrivalLane="top0_0_0" arrivalPos="240.00" arrivalSpeed="9.14" duration="67.00" routeLength="493.70" waitingTime="5.00" waitingCount="1" stopTime="0.00" timeLoss="12.89" rerouteNo="0" devices="tripinfo_flow_30.1" vType="human" speedFactor="0.83" vaporized=""/>
    <tripinfo id="flow_20.3" depart="19.00" departLane="bot0_0_0" departPos="5.10" departSpeed="5.00" departDelay="0.00" arrival="74.00" arrivalLane="bot0_1_0" arrivalPos="240.00" arrivalSpeed="10.32" duration="55.00" routeLength="493.70" waitingTime="0.00" waitingCount="0" stopTime="0.00" timeLoss="6.98" rerouteNo="0" devices="tripinfo_flow_20.3" vType="human" speedFactor="0.94" vaporized=""/>
    <tripinfo id="flow_30.2" depart="13.00" departLane="top0_1_0" departPos="5.10" departSpeed="5.00" departDelay="0.00" arrival="77.00" arrivalLane="top0_0_0" arrivalPos="240.00" arrivalSpeed="9.73" duration="64.00" routeLength="493.70" waitingTime="2.00" waitingCount="1" stopTime="0.00" timeLoss="13.14" rerouteNo="0" devices="tripinfo_flow_30.2" vType="human" speedFactor="0.89" vaporized=""/>
    <tripinfo id="flow_00.1" depart="21.00" departLane="left1_0_0" departPos="5.10" departSpeed="5.00" departDelay="0.00" arrival="77.00" arrivalLane="left0_0_0" arrivalPos="240.00" arrivalSpeed="12.00" duration="56.00" routeLength="493.70" waitingTime="5.00" waitingCount="1" stopTime="0.00" timeLoss="14.61" rerouteNo="0" devices="tripinfo_flow_00.1" vType="human" speedFactor="1.09" vaporized=""/>
    <tripinfo id="flow_10.1" depart="21.00" departLane="right0_0_0" departPos="5.10" departSpeed="5.00" departDelay="0.00" arrival="78.00" arrivalLane="right1_0_0" arrivalPos="240.00" arrivalSpeed="11.29" duration="57.00" routeLength="493.70" waitingTime="4.00" waitingCount="1" stopTime="0.00" timeLoss="13.22" rerouteNo="0" devices="tripinfo_flow_10.1" vType="human" speedFactor="1.03" vaporized=""/>
    <tripinfo id="flow_20.4" depart="25.00" departLane="bot0_0_0" departPos="5.10" departSpeed="5.00" departDelay="0.00" arrival="87.00" arrivalLane="bot0_1_0" arrivalPos="240.00" arrivalSpeed="11.52" duration="62.00" routeLength="493.70" waitingTime="8.00" waitingCount="1" stopTime="0.00" timeLoss="18.70" rerouteNo="0" devices="tripinfo_flow_20.4" vType="human" speedFactor="1.05" vaporized=""/>
    <tripinfo id="flow_20.5" depart="31.00" departLane="bot0_0_0" departPos="5.10" departSpeed="5.00" departDelay="0.00" arrival="91.00" arrivalLane="bot0_1_0" arrivalPos="240.00" arrivalSpeed="10.90" duration="60.00" routeLength="493.70" waitingTime="4.00" waitingCount="1" stopTime="0.00" timeLoss="14.58" rerouteNo="0" devices="tripinfo_flow_20.5" vType="human" speedFactor="0.99" vaporized=""/>
    <tripinfo id="flow_30.3" depart="19.00" departLane="top0_1_0" departPos="5.10" departSpeed="5.00" departDelay="0.00" arrival="92.00" arrivalLane="top0_0_0" arrivalPos="240.00" arrivalSpeed="9.43" duration="73.00" routeLength="493.70" waitingTime="8.00" waitingCount="1" stopTime="0.00" timeLoss="19.75" rerouteNo="0" devices="tripinfo_flow_30.3" vType="human" speedFactor="0.86" vaporized=""/>
    <tripinfo id="flow_30.4" depart="25.00" departLane="top0_1_0" departPos="5.10" departSpeed="5.00" departDelay="0.00" arrival="94.00" arrivalLane="top0_0_0" arrivalPos="240.00" arrivalSpeed="11.70" duration="69.00" routeLength="493.70" waitingTime="7.00" waitingCount="1" stopTime="0.00" timeLoss="28.13" rerouteNo="0" devices="tripinfo_flow_30.4" vType="human" speedFactor="1.12" vaporized=""/>
    <tripinfo id="flow_10.2" depart="41.00" departLane="right0_0_0" departPos="5.10" departSpeed="5.00" departDelay="0.00" arrival="94.00" arrivalLane="right1_0_0" arrivalPos="240.00" arrivalSpeed="12.74" duration="53.00" routeLength="493.70" waitingTime="4.00" waitingCount="1" stopTime="0.00" timeLoss="13.89" rerouteNo="0" devices="tripinfo_flow_10.2" vType="human" speedFactor="1.16" vaporized=""/>
    <tripinfo id="flow_00.2" depart="41.00" departLane="left1_0_0" departPos="5.10" departSpeed="5.00" departDelay="0.00" arrival="98.00" arrivalLane="left0_0_0" arrivalPos="240.00" arrivalSpeed="10.30" duration="57.00" routeLength="493.70" waitingTime="1.00" waitingCount="1" stopTime="0.00" timeLoss="8.99" rerouteNo="0" devices="tripinfo_flow_00.2" vType="human" speedFactor="0.94" vaporized=""/>
    <tripinfo id="flow_30.5" depart="31.00" departLane="top0_1_0" departPos="5.10" departSpeed="5.00" departDelay="0.00" arrival="108.00" arrivalLane="top0_0_0" arrivalPos="240.00" arrivalSpeed="10.20" duration="77.00" routeLength="493.70" waitingTime="13.00" waitingCount="2" stopTime="0.00" timeLoss="27.78" rerouteNo="0" devices="tripinfo_flow_30.5" vType="human" speedFactor="0.93" vaporized=""/>
    <tripinfo id="flow_20.6" depart="37.00" departLane="bot0_0_0" departPos="5.10" departSpeed="5.00" departDelay="0.00" arrival="109.00" arrivalLane="bot0_1_0" arrivalPos="240.00" arrivalSpeed="9.66" duration="72.00" routeLength="493.70" waitingTime="8.00" waitingCount="1" stopTime="0.00" timeLoss="20.39" rerouteNo="0" devices="tripinfo_flow_20.6" vType="human" speedFactor="0.88" vaporized=""/>
    <tripinfo id="flow_30.6" depart="37.00" departLane="top0_1_0" departPos="5.10" departSpeed="5.00" departDelay="0.00" arrival="111.00" arrivalLane="top0_0_0" arrivalPos="240.00" arrivalSpeed="10.34" duration="74.00" routeLength="493.70" waitingTime="8.00" waitingCount="2" stopTime="0.00" timeLoss="25.96" rerouteNo="0" devices="tripinfo_flow_30.6" vType="human" speedFactor="0.94" vaporized=""/>
    <tripinfo id="flow_20.7" depart="43.00" departLane="bot0_0_0" departPos="5.10" departSpeed="5.00" departDelay="0.00" arrival="111.00" arrivalLane="bot0_1_0" arrivalPos="240.00" arrivalSpeed="10.96" duration="68.00" routeLength="493.70" waitingTime="7.00" waitingCount="1" stopTime="0.00" timeLoss="23.62" rerouteNo="0" devices="tripinfo_flow_20.7" vType="human" speedFactor="1.02" vaporized=""/>
    <tripinfo id="flow_10.3" depart="61.00" departLane="right0_0_0" departPos="5.10" departSpeed="5.00" departDelay="0.00" arrival="116.00" arrivalLane="right1_0_0" arrivalPos="240.00" arrivalSpeed="10.44" duration="55.00" routeLength="493.70" waitingTime="0.00" waitingCount="0" stopTime="0.00" timeLoss="7.27" rerouteNo="0" devices="tripinfo_flow_10.3" vType="human" speedFactor="0.95" vaporized=""/>
    <tripinfo id="flow_00.3" depart="61.00" departLane="left1_0_0" departPos="5.10" departSpeed="5.00" departDelay="0.00" arrival="117.00" arrivalLane="left0_0_0" arrivalPos="240.00" arrivalSpeed="10.09" duration="56.00" routeLength="493.70" waitingTime="0.00" waitingCount="0" stopTime="0.00" timeLoss="6.39" rerouteNo="0" devices="tripinfo_flow_00.3" vType="human" speedFactor="0.92" vaporized=""/>
    <tripinfo id="flow_30.7" depart="43.00" departLane="top0_1_0" departPos="5.10" departSpeed="5.00" departDelay="0.00" arrival="124.00" arrivalLane="top0_0_0" arrivalPos="240.00" arrivalSpeed="11.11" duration="81.00" routeLength="493.70" waitingTime="15.00" waitingCount="2" stopTime="0.00" timeLoss="35.87" rerouteNo="0" devices="tripinfo_flow_30.7" vType="human" speedFactor="1.01" vaporized=""/>
    <tripinfo id="flow_20.8" depart="49.00" departLane="bot0_0_0" departPos="5.10" departSpeed="5.00" departDelay="0.00" arrival="125.00" arrivalLane="bot0_1_0" arrivalPos="240.00" arrivalSpeed="10.73" duration="76.00" routeLength="493.70" waitingTime="14.00" waitingCount="2" stopTime="0.00" timeLoss="29.03" rerouteNo="0" devices="tripinfo_flow_20.8" vType="human" speedFactor="0.98" vaporized=""/>
    <tripinfo id="flow_30.8" depart="49.00" departLane="top0_1_0" departPos="5.10" departSpeed="5.00" departDelay="0.00" arrival="130.00" arrivalLane="top0_0_0" arrivalPos="240.00" arrivalSpeed="9.79" duration="81.00" routeLength="493.70" waitingTime="13.00" waitingCount="2" stopTime="0.00" timeLoss="29.70" rerouteNo="0" devices="tripinfo_flow_30.8" vType="human" speedFactor="0.89" vaporized=""/>
    <tripinfo id="flow_10.4" depart="81.00" departLane="right0_0_0" departPos="5.10" departSpeed="5.00" departDelay="0.00" arrival="130.00" arrivalLane="right1_0_0" arrivalPos="240.00" arrivalSpeed="12.98" duration="49.00" routeLength="493.70" waitingTime="0.00" waitingCount="0" stopTime="0.00" timeLoss="10.26" rerouteNo="0" devices="tripinfo_flow_10.4" vType="human" speedFactor="1.18" vaporized=""/>
    <tripinfo id="flow_20.9" depart="55.00" departLane="bot0_0_0" departPos="5.10" departSpeed="5.00" departDelay="0.00" arrival="132.00" arrivalLane="bot0_1_0" arrivalPos="240.00" arrivalSpeed="9.08" duration="77.00" routeLength="493.70" waitingTime="7.00" waitingCount="1" stopTime="0.00" timeLoss="21.65" rerouteNo="0" devices="tripinfo_flow_20.9" vType="human" speedFactor="0.83" vaporized=""/>
    <tripinfo id="flow_00.4" depart="81.00" departLane="left1_0_0" departPos="5.10" departSpeed="5.00" departDelay="0.00" arrival="133.00" arrivalLane="left0_0_0" arrivalPos="240.00" arrivalSpeed="10.71" duration="52.00" routeLength="493.70" waitingTime="0.00" waitingCount="0" stopTime="0.00" timeLoss="5.77" rerouteNo="0" devices="tripinfo_flow_00.4" vType="human" speedFactor="0.97" vaporized=""/>
    <tripinfo id="flow_20.10" depart="61.00" departLane="bot0_0_0" departPos="5.10" departSpeed="5.00" departDelay="0.00" arrival="140.00" arrivalLane="bot0_1_0" arrivalPos="240.00" arrivalSpeed="12.45" duration="79.00" routeLength="493.70" waitingTime="15.00" waitingCount="2" stopTime="0.00" timeLoss="38.49" rerouteNo="0" devices="tripinfo_flow_20.10" vType="human" speedFactor="1.13" vaporized=""/>
    <tripinfo id="flow_20.11" depart="67.00" departLane="bot0_0_0" departPos="5.10" departSpeed="5.00" departDelay="0.00" arrival="142.00" arrivalLane="bot0_1_0" arrivalPos="240.00" arrivalSpeed="12.82" duration="75.00" routeLength="493.70" waitingTime="13.00" waitingCount="2" stopTime="0.00" timeLoss="36.91" rerouteNo="0" devices="tripinfo_flow_20.11" vType="human" speedFactor="1.18" vaporized=""/>
    <tripinfo id="flow_30.9" depart="55.00" departLane="top0_1_0" departPos="5.10" departSpeed="5.00" departDelay="0.00" arrival="145.00" arrivalLane="top0_0_0" arrivalPos="240.00" arrivalSpeed="9.60" duration="90.00" routeLength="493.70" waitingTime="16.00" waitingCount="3" stopTime="0.00" timeLoss="38.22" rerouteNo="0" devices="tripinfo_flow_30.9" vType="human" speedFactor="0.87" vaporized=""/>
    <tripinfo id="flow_30.10" depart="61.00" departLane="top0_1_0" departPos="5.10" departSpeed="5.00" departDelay="0.00" arrival="148.00" arrivalLane="top0_0_0" arrivalPos="240.00" arrivalSpeed="10.22" duration="87.00" routeLength="493.70" waitingTime="13.00" waitingCount="2" stopTime="0.00" timeLoss="38.31" rerouteNo="0" devices="tripinfo_flow_30.10" vType="human" speedFactor="0.93" vaporized=""/>
    <tripinfo id="flow_10.5" depart="101.00" departLane="right0_0_0" departPos="5.10" departSpeed="5.00" departDelay="0.00" arrival="149.00" arrivalLane="right1_0_0" arrivalPos="240.00" arrivalSpeed="11.97" duration="48.00" routeLength="493.70" waitingTime="0.00" waitingCount="0" stopTime="0.00" timeLoss="6.30" rerouteNo="0" devices="tripinfo_flow_10.5" vType="human" speedFactor="1.09" vaporized=""/>
    <tripinfo id="flow_00.5" depart="101.00" departLane="left1_0_0" departPos="5.10" departSpeed="5.00" departDelay="0.00" arrival="150.00" arrivalLane="left0_0_0" arrivalPos="240.00" arrivalSpeed="11.48" duration="49.00" routeLength="493.70" waitingTime="0.00" waitingCount="0" stopTime="0.00" timeLoss="5.26" rerouteNo="0" devices="tripinfo_flow_00.5" vType="human" speedFactor="1.04" vaporized=""/>
    <tripinfo id="flow_30.11" depart="67.00" departLane="top0_1_0" departPos="5.10" departSpeed="5.00" departDelay="0.00" arrival="157.00" arrivalLane="top0_0_0" arrivalPos="240.00" arrivalSpeed="12.70" duration="90.00" routeLength="493.70" waitingTime="21.00" waitingCount="3" stopTime="0.00" timeLoss="50.88" rerouteNo="0" devices="tripinfo_flow_30.11" vType="human" speedFactor="1.15" vaporized=""/>
    <tripinfo id="flow_20.12" depart="73.00" departLane="bot0_0_0" departPos="5.10" departSpeed="5.00" departDelay="0.00" arrival="160.00" arrivalLane="bot0_1_0" arrivalPos="240.00" arrivalSpeed="11.06" duration="87.00" routeLength="493.70" waitingTime="19.00" waitingCount="3" stopTime="0.00" timeLoss="41.73" rerouteNo="0" devices="tripinfo_flow_20.12" vType="human" speedFactor="1.01" vaporized=""/>
    <tripinfo id="flow_30.12" depart="73.00" departLane="top0_1_0" departPos="5.10" departSpeed="5.00" departDelay="0.00" arrival="160.00" arrivalLane="top0_0_0" arrivalPos="240.00" arrivalSpeed="12.84" duration="87.00" routeLength="493.70" waitingTime="19.00" waitingCount="3" stopTime="0.00" timeLoss="48.54" rerouteNo="0" devices="tripinfo_flow_30.12" vType="human" speedFactor="1.17" vaporized=""/>
    <tripinfo id="flow_20.13" depart="79.00" departLane="bot0_0_0" departPos="5.10" departSpeed="5.00" departDelay="0.00" arrival="164.00" arrivalLane="bot0_1_0" arrivalPos="240.00" arrivalSpeed="10.94" duration="85.00" routeLength="493.70" waitingTime="13.00" waitingCount="2" stopTime="0.00" timeLoss="38.95" rerouteNo="0" devices="tripinfo_flow_20.13" vType="human" speedFactor="0.99" vaporized=""/>
    <tripinfo id="flow_10.6" depart="121.00" departLane="right0_0_0" departPos="5.10" departSpeed="5.00" departDelay="0.00" arrival="166.00" arrivalLane="right1_0_0" arrivalPos="240.00" arrivalSpeed="12.05" duration="45.00" routeLength="493.70" waitingTime="0.00" waitingCount="0" stopTime="0.00" timeLoss="4.02" rerouteNo="0" devices="tripinfo_flow_10.6" vType="human" speedFactor="1.10" vaporized=""/>
    <tripinfo id="flow_00.6" depart="121.00" departLane="left1_0_0" departPos="5.10" departSpeed="5.00" departDelay="0.00" arrival="168.00" arrivalLane="left0_0_0" arrivalPos="240.00" arrivalSpeed="11.18" duration="47.00" routeLength="493.70" waitingTime="0.00" waitingCount="0" stopTime="0.00" timeLoss="2.22" rerouteNo="0" devices="tripinfo_flow_00.6" vType="human" speedFactor="1.02" vaporized=""/>
    <tripinfo id="flow_20.14" depart="85.00" departLane="bot0_0_0" departPos="5.10" departSpeed="5.00" departDelay="0.00" arrival="176.00" arrivalLane="bot0_1_0" arrivalPos="240.00" arrivalSpeed="12.13" duration="91.00" routeLength="493.70" waitingTime="21.00" waitingCount="3" stopTime="0.00" timeLoss="49.85" rerouteNo="0" devices="tripinfo_flow_20.14" vType="human" speedFactor="1.10" vaporized=""/>
    <tripinfo id="flow_30.13" depart="79.00" departLane="top0_1_0" departPos="5.10" departSpeed="5.00" departDelay="0.00" arrival="178.00" arrivalLane="top0_0_0" arrivalPos="240.00" arrivalSpeed="11.22" duration="99.00" routeLength="493.70" waitingTime="22.00" waitingCount="4" stopTime="0.00" timeLoss="54.07" rerouteNo="0" devices="tripinfo_flow_30.13" vType="human" speedFactor="1.02" vaporized=""/>
    <tripinfo id="flow_20.15" depart="91.00" departLane="bot0_0_0" departPos="5.10" departSpeed="5.00" departDelay="0.00" arrival="180.00" arrivalLane="bot0_1_0" arrivalPos="240.00" arrivalSpeed="11.33" duration="89.00" routeLength="493.70" waitingTime="18.00" waitingCount="3" stopTime="0.00" timeLoss="45.38" rerouteNo="0" devices="tripinfo_flow_20.15" vType="human" speedFactor="1.03" vaporized=""/>
    <tripinfo id="flow_30.14" depart="85.00" departLane="top0_1_0" departPos="5.10" departSpeed="5.00" departDelay="0.00" arrival="183.00" arrivalLane="top0_0_0" arrivalPos="240.00" arrivalSpeed="9.91" duration="98.00" routeLength="493.70" waitingTime="19.00" waitingCount="3" stopTime="0.00" timeLoss="48.01" rerouteNo="0" devices="tripinfo_flow_30.14" vType="human" speedFactor="0.90" vaporized=""/>
    <tripinfo id="flow_00.7" depart="141.00" departLane="left1_0_0" departPos="5.10" departSpeed="5.00" departDelay="0.00" arrival="187.00" arrivalLane="left0_0_0" arrivalPos="240.00" arrivalSpeed="11.17" duration="46.00" routeLength="493.70" waitingTime="0.00" waitingCount="0" stopTime="0.00" timeLoss="1.21" rerouteNo="0" devices="tripinfo_flow_00.7" vType="human" speedFactor="1.02" vaporized=""/>
    <tripinfo id="flow_10.7" depart="141.00" departLane="right0_0_0" departPos="5.10" departSpeed="5.00" departDelay="0.00" arrival="188.00" arrivalLane="right1_0_0" arrivalPos="240.00" arrivalSpeed="10.86" duration="47.00" routeLength="493.70" waitingTime="0.00" waitingCount="0" stopTime="0.00" timeLoss="1.04" rerouteNo="0" devices="tripinfo_flow_10.7" vType="human" speedFactor="0.99" vaporized=""/>
    <tripinfo id="flow_20.16" depart="97.00" departLane="bot0_0_0" departPos="5.10" departSpeed="5.00" departDelay="0.00" arrival="194.00" arrivalLane="bot0_1_0" arrivalPos="240.00" arrivalSpeed="12.01" duration="97.00" routeLength="493.70" waitingTime="23.00" waitingCount="4" stopTime="0.00" timeLoss="55.63" rerouteNo="0" devices="tripinfo_flow_20.16" vType="human" speedFactor="1.09" vaporized=""/>
    <tripinfo id="flow_30.15" depart="91.00" departLane="top0_1_0" departPos="5.10" departSpeed="5.00" departDelay="0.00" arrival="197.00" arrivalLane="top0_0_0" arrivalPos="240.00" arrivalSpeed="10.53" duration="106.00" routeLength="493.70" waitingTime="26.00" waitingCount="4" stopTime="0.00" timeLoss="58.58" rerouteNo="0" devices="tripinfo_flow_30.15" vType="human" speedFactor="0.96" vaporized=""/>
    <tripinfo id="flow_20.17" depart="103.00" departLane="bot0_0_0" departPos="5.10" departSpeed="5.00" departDelay="0.00" arrival="199.00" arrivalLane="bot0_1_0" arrivalPos="240.00" arrivalSpeed="10.97" duration="96.00" routeLength="493.70" waitingTime="19.00" waitingCount="3" stopTime="0.00" timeLoss="50.55" rerouteNo="0" devices="tripinfo_flow_20.17" vType="human" speedFactor="1.00" vaporized=""/>
    <tripinfo id="flow_30.16" depart="97.00" departLane="top0_1_0" departPos="5.10" departSpeed="5.00" departDelay="0.00" arrival="200.00" arrivalLane="top0_0_0" arrivalPos="240.00" arrivalSpeed="11.37" duration="103.00" routeLength="493.70" waitingTime="22.00" waitingCount="4" stopTime="0.00" timeLoss="58.84" rerouteNo="0" devices="tripinfo_flow_30.16" vType="human" speedFactor="1.04" vaporized=""/>
    <tripinfo id="flow_00.8" depart="161.00" departLane="left1_0_0" departPos="5.10" departSpeed="5.00" departDelay="0.00" arrival="206.00" arrivalLane="left0_0_0" arrivalPos="240.00" arrivalSpeed="11.25" duration="45.00" routeLength="493.70" waitingTime="0.00" waitingCount="0" stopTime="0.00" timeLoss="0.96" rerouteNo="0" devices="tripinfo_flow_00.8" vType="human" speedFactor="1.02" vaporized=""/>
    <tripinfo id="flow_10.8" depart="161.00" departLane="right0_0_0" departPos="5.10" departSpeed="5.00" departDelay="0.00" arrival="208.00" arrivalLane="right1_0_0" arrivalPos="240.00" arrivalSpeed="10.70" duration="47.00" routeLength="493.70" waitingTime="0.00" waitingCount="0" stopTime="0.00" timeLoss="0.79" rerouteNo="0" devices="tripinfo_flow_10.8" vType="human" speedFactor="0.97" vaporized=""/>
    <tripinfo id="flow_30.17" depart="103.00" departLane="top0_1_0" departPos="5.10" departSpeed="5.00" departDelay="0.00" arrival="216.00" arrivalLane="top0_0_0" arrivalPos="240.00" arrivalSpeed="9.91" duration="113.00" routeLength="493.70" waitingTime="26.00" waitingCount="4" stopTime="0.00" timeLoss="63.04" rerouteNo="0" devices="tripinfo_flow_30.17" vType="human" speedFactor="0.90" vaporized=""/>
    <tripinfo id="flow_20.18" depart="109.00" departLane="bot0_0_0" departPos="5.10" departSpeed="5.00" departDelay="0.00" arrival="217.00" arrivalLane="bot0_1_0" arrivalPos="240.00" arrivalSpeed="9.65" duration="108.00" routeLength="493.70" waitingTime="26.00" waitingCount="4" stopTime="0.00" timeLoss="56.34" rerouteNo="0" devices="tripinfo_flow_20.18" vType="human" speedFactor="0.88" vaporized=""/>
    <tripinfo id="flow_30.18" depart="109.00" departLane="top0_1_0" departPos="5.10" departSpeed="5.00" departDelay="0.00" arrival="221.00" arrivalLane="top0_0_0" arrivalPos="240.00" arrivalSpeed="9.35" duration="112.00" routeLength="493.70" waitingTime="24.00" waitingCount="4" stopTime="0.00" timeLoss="58.88" rerouteNo="0" devices="tripinfo_flow_30.18" vType="human" speedFactor="0.85" vaporized=""/>
    <tripinfo id="flow_20.19" depart="115.00" departLane="bot0_0_0" departPos="5.10" departSpeed="5.00" departDelay="0.00" arrival="221.00" arrivalLane="bot0_1_0" arrivalPos="240.00" arrivalSpeed="9.40" duration="106.00" routeLength="493.70" waitingTime="19.00" waitingCount="3" stopTime="0.00" timeLoss="53.25" rerouteNo="0" devices="tripinfo_flow_20.19" vType="human" speedFactor="0.85" vaporized=""/>
    <tripinfo id="flow_10.9" depart="181.00" departLane="right0_0_0" departPos="5.10" departSpeed="5.00" departDelay="0.00" arrival="224.00" arrivalLane="right1_0_0" arrivalPos="240.00" arrivalSpeed="11.96" duration="43.00" routeLength="493.70" waitingTime="0.00" waitingCount="0" stopTime="0.00" timeLoss="1.03" rerouteNo="0" devices="tripinfo_flow_10.9" vType="human" speedFactor="1.09" vaporized=""/>
    <tripinfo id="flow_30.19" depart="115.00" departLane="top0_1_0" departPos="5.10" departSpeed="5.00" departDelay="0.00" arrival="229.00" arrivalLane="top0_0_0" arrivalPos="240.00" arrivalSpeed="12.86" duration="114.00" routeLength="493.70" waitingTime="31.00" waitingCount="5" stopTime="0.00" timeLoss="75.17" rerouteNo="0" devices="tripinfo_flow_30.19" vType="human" speedFactor="1.17" vaporized=""/>
    <tripinfo id="flow_20.20" depart="121.00" departLane="bot0_0_0" departPos="5.10" departSpeed="5.00" departDelay="0.00" arrival="232.00" arrivalLane="bot0_1_0" arrivalPos="240.00" arrivalSpeed="11.03" duration="111.00" routeLength="493.70" waitingTime="26.00" waitingCount="4" stopTime="0.00" timeLoss="65.73" rerouteNo="0" devices="tripinfo_flow_20.20" vType="human" speedFactor="1.00" vaporized=""/>
    <tripinfo id="flow_30.20" depart="121.00" departLane="top0_1_0" departPos="5.10" departSpeed="5.00" departDelay="0.00" arrival="235.00" arrivalLane="top0_0_0" arrivalPos="240.00" arrivalSpeed="10.96" duration="114.00" routeLength="493.70" waitingTime="24.00" waitingCount="4" stopTime="0.00" timeLoss="68.32" rerouteNo="0" devices="tripinfo_flow_30.20" vType="human" speedFactor="1.00" vaporized=""/>
    <tripinfo id="flow_20.21" depart="127.00" departLane="bot0_0_0" departPos="5.10" departSpeed="5.00" departDelay="0.00" arrival="237.00" arrivalLane="bot0_1_0" arrivalPos="240.00" arrivalSpeed="9.89" duration="110.00" routeLength="493.70" waitingTime="24.00" waitingCount="4" stopTime="0.00" timeLoss="60.03" rerouteNo="0" devices="tripinfo_flow_20.21" vType="human" speedFactor="0.90" vaporized=""/>
    <tripinfo id="flow_00.9" depart="181.00" departLane="left1_0_0" departPos="5.10" departSpeed="5.00" departDelay="0.00" arrival="241.00" arrivalLane="left0_0_0" arrivalPos="240.00" arrivalSpeed="11.08" duration="60.00" routeLength="493.70" waitingTime="7.00" waitingCount="1" stopTime="0.00" timeLoss="14.78" rerouteNo="0" devices="tripinfo_flow_00.9" vType="human" speedFactor="1.01" vaporized=""/>
    <tripinfo id="flow_30.21" depart="127.00" departLane="top0_1_0" departPos="5.10" departSpeed="5.00" departDelay="0.00" arrival="247.00" arrivalLane="top0_0_0" arrivalPos="240.00" arrivalSpeed="12.57" duration="120.00" routeLength="493.70" waitingTime="31.00" waitingCount="5" stopTime="0.00" timeLoss="80.62" rerouteNo="0" devices="tripinfo_flow_30.21" vType="human" speedFactor="1.14" vaporized=""/>
    <tripinfo id="flow_20.22" depart="133.00" departLane="bot0_0_0" departPos="5.10" departSpeed="5.00" departDelay="0.00" arrival="250.00" arrivalLane="bot0_1_0" arrivalPos="240.00" arrivalSpeed="11.26" duration="117.00" routeLength="493.70" waitingTime="30.00" waitingCount="5" stopTime="0.00" timeLoss="72.19" rerouteNo="0" devices="tripinfo_flow_20.22" vType="human" speedFactor="1.02" vaporized=""/>
    <tripinfo id="flow_20.23" depart="139.00" departLane="bot0_0_0" departPos="5.10" departSpeed="5.00" departDelay="0.00" arrival="252.00" arrivalLane="bot0_1_0" arrivalPos="240.00" arrivalSpeed="11.78" duration="113.00" routeLength="493.70" waitingTime="25.00" waitingCount="5" stopTime="0.00" timeLoss="71.39" rerouteNo="0" devices="tripinfo_flow_20.23" vType="human" speedFactor="1.08" vaporized=""/>
    <tripinfo id="flow_30.22" depart="133.00" departLane="top0_1_0" departPos="5.10" departSpeed="5.00" departDelay="0.00" arrival="253.00" arrivalLane="top0_0_0" arrivalPos="240.00" arrivalSpeed="10.66" duration="120.00" routeLength="493.70" waitingTime="28.00" waitingCount="5" stopTime="0.00" timeLoss="73.67" rerouteNo="0" devices="tripinfo_flow_30.22" vType="human" speedFactor="0.97" vaporized=""/>
    <tripinfo id="flow_00.10" depart="201.00" departLane="left1_0_0" departPos="5.10" departSpeed="5.00" departDelay="0.00" arrival="259.00" arrivalLane="left0_0_0" arrivalPos="240.00" arrivalSpeed="11.08" duration="58.00" routeLength="493.70" waitingTime="4.00" waitingCount="1" stopTime="0.00" timeLoss="12.78" rerouteNo="0" devices="tripinfo_flow_00.10" vType="human" speedFactor="1.01" vaporized=""/>
    <tripinfo id="flow_10.10" depart="201.00" departLane="right0_0_0" departPos="5.10" departSpeed="5.00" departDelay="0.00" arrival="259.00" arrivalLane="right1_0_0" arrivalPos="240.00" arrivalSpeed="11.24" duration="58.00" routeLength="493.70" waitingTime="5.00" waitingCount="1" stopTime="0.00" timeLoss="13.12" rerouteNo="0" devices="tripinfo_flow_10.10" vType="human" speedFactor="1.02" vaporized=""/>