<?xml version="1.0" encoding="UTF-8"?>

<!-- generated on Wed Jul 15 22:57:32 2020 by Eclipse SUMO Version v1_6_0+0474-c178882b35
<configuration xmlns:xsi="http://www.w3.org/2001/XMLSchema-instance" xsi:noNamespaceSchemaLocation="http://sumo.dlr.de/xsd/sumoConfiguration.xsd">

    <input>
        <net-file value="/usr/local/google/home/gilbertbahati/flow/flow/core/kernel/network/debug/cfg/grid-trail_20200715-2257311594853851.1281571.net.xml"/>
        <route-files value="/usr/local/google/home/gilbertbahati/flow/flow/core/kernel/network/debug/cfg/grid-trail_20200715-2257311594853851.1281571.rou.xml"/>
        <additional-files value="/usr/local/google/home/gilbertbahati/flow/flow/core/kernel/network/debug/cfg/grid-trail_20200715-2257311594853851.1281571.add.xml"/>
    </input>

    <output>
        <tripinfo-output value="~/flow/data/grid-trail_20200715-2257311594853851.1281571-emission.xml"/>
    </output>

    <time>
        <begin value="0"/>
        <step-length value="1"/>
    </time>

    <processing>
        <collision.check-junctions value="true"/>
        <time-to-teleport value="-1"/>
    </processing>

    <report>
        <no-step-log value="true"/>
    </report>

    <traci_server>
        <remote-port value="50695"/>
        <num-clients value="1"/>
    </traci_server>

    <gui_only>
        <gui-settings-file value="/usr/local/google/home/gilbertbahati/flow/flow/core/kernel/network/debug/cfg/grid-trail_20200715-2257311594853851.1281571.gui.cfg"/>
        <tracker-interval value="1"/>
    </gui_only>

</configuration>
-->

<tripinfos xmlns:xsi="http://www.w3.org/2001/XMLSchema-instance" xsi:noNamespaceSchemaLocation="http://sumo.dlr.de/xsd/tripinfo_file.xsd">
    <tripinfo id="human_0" depart="1.00" departLane="left1_0_0" departPos="6.00" departSpeed="0.00" departDelay="0.00" arrival="46.00" arrivalLane="left0_0_0" arrivalPos="240.00" arrivalSpeed="11.66" duration="45.00" routeLength="492.80" waitingTime="0.00" waitingCount="0" stopTime="0.00" timeLoss="2.01" rerouteNo="0" devices="tripinfo_human_0" vType="human" speedFactor="1.06" vaporized=""/>
    <tripinfo id="flow_00.0" depart="4.00" departLane="left1_0_0" departPos="5.10" departSpeed="5.00" departDelay="3.00" arrival="50.00" arrivalLane="left0_0_0" arrivalPos="240.00" arrivalSpeed="11.65" duration="46.00" routeLength="493.70" waitingTime="0.00" waitingCount="0" stopTime="0.00" timeLoss="2.94" rerouteNo="0" devices="tripinfo_flow_00.0" vType="human" speedFactor="1.06" vaporized=""/>
    <tripinfo id="flow_10.0" depart="1.00" departLane="right0_0_0" departPos="5.10" departSpeed="5.00" departDelay="0.00" arrival="50.00" arrivalLane="right1_0_0" arrivalPos="240.00" arrivalSpeed="10.32" duration="49.00" routeLength="493.70" waitingTime="0.00" waitingCount="0" stopTime="0.00" timeLoss="0.50" rerouteNo="0" devices="tripinfo_flow_10.0" vType="human" speedFactor="0.94" vaporized=""/>
    <tripinfo id="flow_00.1" depart="21.00" departLane="left1_0_0" departPos="5.10" departSpeed="5.00" departDelay="0.00" arrival="63.00" arrivalLane="left0_0_0" arrivalPos="240.00" arrivalSpeed="12.00" duration="42.00" routeLength="493.70" waitingTime="0.00" waitingCount="0" stopTime="0.00" timeLoss="0.82" rerouteNo="0" devices="tripinfo_flow_00.1" vType="human" speedFactor="1.09" vaporized=""/>
    <tripinfo id="flow_10.1" depart="21.00" departLane="right0_0_0" departPos="5.10" departSpeed="5.00" departDelay="0.00" arrival="66.00" arrivalLane="right1_0_0" arrivalPos="240.00" arrivalSpeed="11.29" duration="45.00" routeLength="493.70" waitingTime="0.00" waitingCount="0" stopTime="0.00" timeLoss="0.69" rerouteNo="0" devices="tripinfo_flow_10.1" vType="human" speedFactor="1.03" vaporized=""/>
    <tripinfo id="flow_10.2" depart="41.00" departLane="right0_0_0" departPos="5.10" departSpeed="5.00" departDelay="0.00" arrival="81.00" arrivalLane="right1_0_0" arrivalPos="240.00" arrivalSpeed="12.74" duration="40.00" routeLength="493.70" waitingTime="0.00" waitingCount="0" stopTime="0.00" timeLoss="0.93" rerouteNo="0" devices="tripinfo_flow_10.2" vType="human" speedFactor="1.16" vaporized=""/>
    <tripinfo id="flow_00.2" depart="41.00" departLane="left1_0_0" departPos="5.10" departSpeed="5.00" departDelay="0.00" arrival="90.00" arrivalLane="left0_0_0" arrivalPos="240.00" arrivalSpeed="10.30" duration="49.00" routeLength="493.70" waitingTime="0.00" waitingCount="0" stopTime="0.00" timeLoss="0.51" rerouteNo="0" devices="tripinfo_flow_00.2" vType="human" speedFactor="0.94" vaporized=""/>
    <tripinfo id="flow_10.3" depart="61.00" departLane="right0_0_0" departPos="5.10" departSpeed="5.00" departDelay="0.00" arrival="109.00" arrivalLane="right1_0_0" arrivalPos="240.00" arrivalSpeed="10.44" duration="48.00" routeLength="493.70" waitingTime="0.00" waitingCount="0" stopTime="0.00" timeLoss="0.52" rerouteNo="0" devices="tripinfo_flow_10.3" vType="human" speedFactor="0.95" vaporized=""/>
    <tripinfo id="flow_00.3" depart="61.00" departLane="left1_0_0" departPos="5.10" departSpeed="5.00" departDelay="0.00" arrival="111.00" arrivalLane="left0_0_0" arrivalPos="240.00" arrivalSpeed="10.09" duration="50.00" routeLength="493.70" waitingTime="0.00" waitingCount="0" stopTime="0.00" timeLoss="0.49" rerouteNo="0" devices="tripinfo_flow_00.3" vType="human" speedFactor="0.92" vaporized=""/>
    <tripinfo id="flow_10.4" depart="81.00" departLane="right0_0_0" departPos="5.10" departSpeed="5.00" departDelay="0.00" arrival="121.00" arrivalLane="right1_0_0" arrivalPos="240.00" arrivalSpeed="12.98" duration="40.00" routeLength="493.70" waitingTime="0.00" waitingCount="0" stopTime="0.00" timeLoss="1.02" rerouteNo="0" devices="tripinfo_flow_10.4" vType="human" speedFactor="1.18" vaporized=""/>
    <tripinfo id="flow_00.4" depart="81.00" departLane="left1_0_0" departPos="5.10" departSpeed="5.00" departDelay="0.00" arrival="128.00" arrivalLane="left0_0_0" arrivalPos="240.00" arrivalSpeed="10.71" duration="47.00" routeLength="493.70" waitingTime="0.00" waitingCount="0" stopTime="0.00" timeLoss="0.60" rerouteNo="0" devices="tripinfo_flow_00.4" vType="human" speedFactor="0.97" vaporized=""/>
    <tripinfo id="flow_10.5" depart="101.00" departLane="right0_0_0" departPos="5.10" departSpeed="5.00" departDelay="0.00" arrival="144.00" arrivalLane="right1_0_0" arrivalPos="240.00" arrivalSpeed="11.97" duration="43.00" routeLength="493.70" waitingTime="0.00" waitingCount="0" stopTime="0.00" timeLoss="0.77" rerouteNo="0" devices="tripinfo_flow_10.5" vType="human" speedFactor="1.09" vaporized=""/>
    <tripinfo id="flow_00.5" depart="101.00" departLane="left1_0_0" departPos="5.10" departSpeed="5.00" departDelay="0.00" arrival="145.00" arrivalLane="left0_0_0" arrivalPos="240.00" arrivalSpeed="11.48" duration="44.00" routeLength="493.70" waitingTime="0.00" waitingCount="0" stopTime="0.00" timeLoss="0.72" rerouteNo="0" devices="tripinfo_flow_00.5" vType="human" speedFactor="1.04" vaporized=""/>
    <tripinfo id="flow_10.6" depart="121.00" departLane="right0_0_0" departPos="5.10" departSpeed="5.00" departDelay="0.00" arrival="163.00" arrivalLane="right1_0_0" arrivalPos="240.00" arrivalSpeed="12.05" duration="42.00" routeLength="493.70" waitingTime="0.00" waitingCount="0" stopTime="0.00" timeLoss="0.80" rerouteNo="0" devices="tripinfo_flow_10.6" vType="human" speedFactor="1.10" vaporized=""/>
    <tripinfo id="flow_00.6" depart="121.00" departLane="left1_0_0" departPos="5.10" departSpeed="5.00" departDelay="0.00" arrival="166.00" arrivalLane="left0_0_0" arrivalPos="240.00" arrivalSpeed="11.18" duration="45.00" routeLength="493.70" waitingTime="0.00" waitingCount="0" stopTime="0.00" timeLoss="0.65" rerouteNo="0" devices="tripinfo_flow_00.6" vType="human" speedFactor="1.02" vaporized=""/>
    <tripinfo id="flow_00.7" depart="141.00" departLane="left1_0_0" departPos="5.10" departSpeed="5.00" departDelay="0.00" arrival="186.00" arrivalLane="left0_0_0" arrivalPos="240.00" arrivalSpeed="11.17" duration="45.00" routeLength="493.70" waitingTime="0.00" waitingCount="0" stopTime="0.00" timeLoss="0.66" rerouteNo="0" devices="tripinfo_flow_00.7" vType="human" speedFactor="1.02" vaporized=""/>
    <tripinfo id="flow_10.7" depart="141.00" departLane="right0_0_0" departPos="5.10" departSpeed="5.00" departDelay="0.00" arrival="188.00" arrivalLane="right1_0_0" arrivalPos="240.00" arrivalSpeed="10.86" duration="47.00" routeLength="493.70" waitingTime="0.00" waitingCount="0" stopTime="0.00" timeLoss="0.59" rerouteNo="0" devices="tripinfo_flow_10.7" vType="human" speedFactor="0.99" vaporized=""/>
    <tripinfo id="flow_00.8" depart="161.00" departLane="left1_0_0" departPos="5.10" departSpeed="5.00" departDelay="0.00" arrival="206.00" arrivalLane="left0_0_0" arrivalPos="240.00" arrivalSpeed="11.25" duration="45.00" routeLength="493.70" waitingTime="0.00" waitingCount="0" stopTime="0.00" timeLoss="0.67" rerouteNo="0" devices="tripinfo_flow_00.8" vType="human" speedFactor="1.02" vaporized=""/>
    <tripinfo id="flow_10.8" depart="161.00" departLane="right0_0_0" departPos="5.10" departSpeed="5.00" departDelay="0.00" arrival="208.00" arrivalLane="right1_0_0" arrivalPos="240.00" arrivalSpeed="10.70" duration="47.00" routeLength="493.70" waitingTime="0.00" waitingCount="0" stopTime="0.00" timeLoss="0.58" rerouteNo="0" devices="tripinfo_flow_10.8" vType="human" speedFactor="0.97" vaporized=""/>
    <tripinfo id="flow_10.9" depart="181.00" departLane="right0_0_0" departPos="5.10" departSpeed="5.00" departDelay="0.00" arrival="224.00" arrivalLane="right1_0_0" arrivalPos="240.00" arrivalSpeed="11.96" duration="43.00" routeLength="493.70" waitingTime="0.00" waitingCount="0" stopTime="0.00" timeLoss="0.80" rerouteNo="0" devices="tripinfo_flow_10.9" vType="human" speedFactor="1.09" vaporized=""/>
    <tripinfo id="flow_00.9" depart="181.00" departLane="left1_0_0" departPos="5.10" departSpeed="5.00" departDelay="0.00" arrival="227.00" arrivalLane="left0_0_0" arrivalPos="240.00" arrivalSpeed="11.08" duration="46.00" routeLength="493.70" waitingTime="0.00" waitingCount="0" stopTime="0.00" timeLoss="0.64" rerouteNo="0" devices="tripinfo_flow_00.9" vType="human" speedFactor="1.01" vaporized=""/>
    <tripinfo id="flow_10.10" depart="201.00" departLane="right0_0_0" departPos="5.10" departSpeed="5.00" departDelay="0.00" arrival="246.00" arrivalLane="right1_0_0" arrivalPos="240.00" arrivalSpeed="11.24" duration="45.00" routeLength="493.70" waitingTime="0.00" waitingCount="0" stopTime="0.00" timeLoss="0.66" rerouteNo="0" devices="tripinfo_flow_10.10" vType="human" speedFactor="1.02" vaporized=""/>
    <tripinfo id="flow_00.10" depart="201.00" departLane="left1_0_0" departPos="5.10" departSpeed="5.00" departDelay="0.00" arrival="247.00" arrivalLane="left0_0_0" arrivalPos="240.00" arrivalSpeed="11.08" duration="46.00" routeLength="493.70" waitingTime="0.00" waitingCount="0" stopTime="0.00" timeLoss="0.64" rerouteNo="0" devices="tripinfo_flow_00.10" vType="human" speedFactor="1.01" vaporized=""/>
    <tripinfo id="flow_00.11" depart="221.00" departLane="left1_0_0" departPos="5.10" departSpeed="5.00" departDelay="0.00" arrival="267.00" arrivalLane="left0_0_0" arrivalPos="240.00" arrivalSpeed="11.11" duration="46.00" routeLength="493.70" waitingTime="0.00" waitingCount="0" stopTime="0.00" timeLoss="0.65" rerouteNo="0" devices="tripinfo_flow_00.11" vType="human" speedFactor="1.01" vaporized=""/>
    <tripinfo id="flow_10.11" depart="221.00" departLane="right0_0_0" departPos="5.10" departSpeed="5.00" departDelay="0.00" arrival="271.00" arrivalLane="right1_0_0" arrivalPos="240.00" arrivalSpeed="9.97" duration="50.00" routeLength="493.70" waitingTime="0.00" waitingCount="0" stopTime="0.00" timeLoss="0.46" rerouteNo="0" devices="tripinfo_flow_10.11" vType="human" speedFactor="0.91" vaporized=""/>
    <tripinfo id="flow_10.12" depart="241.00" departLane="right0_0_0" departPos="5.10" departSpeed="5.00" departDelay="0.00" arrival="284.00" arrivalLane="right1_0_0" arrivalPos="240.00" arrivalSpeed="11.80" duration="43.00" routeLength="493.70" waitingTime="0.00" waitingCount="0" stopTime="0.00" timeLoss="0.80" rerouteNo="0" devices="tripinfo_flow_10.12" vType="human" speedFactor="1.07" vaporized=""/>
    <tripinfo id="flow_00.12" depart="241.00" departLane="left1_0_0" departPos="5.10" departSpeed="5.00" departDelay="0.00" arrival="292.00" arrivalLane="left0_0_0" arrivalPos="240.00" arrivalSpeed="9.83" duration="51.00" routeLength="493.70" waitingTime="0.00" waitingCount="0" stopTime="0.00" timeLoss="0.44" rerouteNo="0" devices="tripinfo_flow_00.12" vType="human" speedFactor="0.89" vaporized=""/>
    <tripinfo id="flow_00.13" depart="261.00" departLane="left1_0_0" departPos="5.10" departSpeed="5.00" departDelay="0.00" arrival="303.00" arrivalLane="left0_0_0" arrivalPos="240.00" arrivalSpeed="12.06" duration="42.00" routeLength="493.70" waitingTime="0.00" waitingCount="0" stopTime="0.00" timeLoss="0.87" rerouteNo="0" devices="tripinfo_flow_00.13" vType="human" speedFactor="1.10" vaporized=""/>
    <tripinfo id="flow_10.13" depart="261.00" departLane="right0_0_0" departPos="5.10" departSpeed="5.00" departDelay="0.00" arrival="311.00" arrivalLane="right1_0_0" arrivalPos="240.00" arrivalSpeed="10.14" duration="50.00" routeLength="493.70" waitingTime="0.00" waitingCount="0" stopTime="0.00" timeLoss="0.48" rerouteNo="0" devices="tripinfo_flow_10.13" vType="human" speedFactor="0.92" vaporized=""/>
    <tripinfo id="flow_00.14" depart="281.00" departLane="left1_0_0" departPos="5.10" departSpeed="5.00" departDelay="0.00" arrival="326.00" arrivalLane="left0_0_0" arrivalPos="240.00" arrivalSpeed="11.35" duration="45.00" routeLength="493.70" waitingTime="0.00" waitingCount="0" stopTime="0.00" timeLoss="0.67" rerouteNo="0" devices="tripinfo_flow_00.14" vType="human" speedFactor="1.03" vaporized=""/>
    <tripinfo id="flow_10.14" depart="281.00" departLane="right0_0_0" departPos="5.10" departSpeed="5.00" departDelay="0.00" arrival="326.00" arrivalLane="right1_0_0" arrivalPos="240.00" arrivalSpeed="11.26" duration="45.00" routeLength="493.70" waitingTime="0.00" waitingCount="0" stopTime="0.00" timeLoss="0.69" rerouteNo="0" devices="tripinfo_flow_10.14" vType="human" speedFactor="1.02" vaporized=""/>
    <tripinfo id="flow_10.15" depart="301.00" departLane="right0_0_0" departPos="5.10" departSpeed="5.00" departDelay="0.00" arrival="344.00" arrivalLane="right1_0_0" arrivalPos="240.00" arrivalSpeed="11.75" duration="43.00" routeLength="493.70" waitingTime="0.00" waitingCount="0" stopTime="0.00" timeLoss="0.75" rerouteNo="0" devices="tripinfo_flow_10.15" vType="human" speedFactor="1.07" vaporized=""/>
    <tripinfo id="flow_00.15" depart="301.00" departLane="left1_0_0" departPos="5.10" departSpeed="5.00" departDelay="0.00" arrival="346.00" arrivalLane="left0_0_0" arrivalPos="240.00" arrivalSpeed="11.35" duration="45.00" routeLength="493.70" waitingTime="0.00" waitingCount="0" stopTime="0.00" timeLoss="0.68" rerouteNo="0" devices="tripinfo_flow_00.15" vType="human" speedFactor="1.03" vaporized=""/>
    <tripinfo id="flow_10.16" depart="321.00" departLane="right0_0_0" departPos="5.10" departSpeed="5.00" departDelay="0.00" arrival="361.00" arrivalLane="right1_0_0" arrivalPos="240.00" arrivalSpeed="12.81" duration="40.00" routeLength="493.70" waitingTime="0.00" waitingCount="0" stopTime="0.00" timeLoss="0.94" rerouteNo="0" devices="tripinfo_flow_10.16" vType="human" speedFactor="1.16" vaporized=""/>
    <tripinfo id="flow_00.16" depart="321.00" departLane="left1_0_0" departPos="5.10" departSpeed="5.00" departDelay="0.00" arrival="363.00" arrivalLane="left0_0_0" arrivalPos="240.00" arrivalSpeed="12.25" duration="42.00" routeLength="493.70" waitingTime="0.00" waitingCount="0" stopTime="0.00" timeLoss="0.84" rerouteNo="0" devices="tripinfo_flow_00.16" vType="human" speedFactor="1.11" vaporized=""/>
    <tripinfo id="flow_10.17" depart="341.00" departLane="right0_0_0" departPos="5.10" departSpeed="5.00" departDelay="0.00" arrival="385.00" arrivalLane="right1_0_0" arrivalPos="240.00" arrivalSpeed="11.44" duration="44.00" routeLength="493.70" waitingTime="0.00" waitingCount="0" stopTime="0.00" timeLoss="0.68" rerouteNo="0" devices="tripinfo_flow_10.17" vType="human" speedFactor="1.04" vaporized=""/>
    <tripinfo id="flow_00.17" depart="341.00" departLane="left1_0_0" departPos="5.10" departSpeed="5.00" departDelay="0.00" arrival="388.00" arrivalLane="left0_0_0" arrivalPos="240.00" arrivalSpeed="10.64" duration="47.00" routeLength="493.70" waitingTime="0.00" waitingCount="0" stopTime="0.00" timeLoss="0.56" rerouteNo="0" devices="tripinfo_flow_00.17" vType="human" speedFactor="0.97" vaporized=""/>
    <tripinfo id="flow_00.18" depart="361.00" departLane="left1_0_0" departPos="5.10" departSpeed="5.00" departDelay="0.00" arrival="401.00" arrivalLane="left0_0_0" arrivalPos="240.00" arrivalSpeed="12.97" duration="40.00" routeLength="493.70" waitingTime="0.00" waitingCount="0" stopTime="0.00" timeLoss="1.00" rerouteNo="0" devices="tripinfo_flow_00.18" vType="human" speedFactor="1.18" vaporized=""/>
    <tripinfo id="flow_10.18" depart="361.00" departLane="right0_0_0" departPos="5.10" departSpeed="5.00" departDelay="0.00" arrival="404.00" arrivalLane="right1_0_0" arrivalPos="240.00" arrivalSpeed="11.87" duration="43.00" routeLength="493.70" waitingTime="0.00" waitingCount="0" stopTime="0.00" timeLoss="0.77" rerouteNo="0" devices="tripinfo_flow_10.18" vType="human" speedFactor="1.08" vaporized=""/>
    <tripinfo id="flow_10.19" depart="381.00" departLane="right0_0_0" departPos="5.10" departSpeed="5.00" departDelay="0.00" arrival="426.00" arrivalLane="right1_0_0" arrivalPos="240.00" arrivalSpeed="11.33" duration="45.00" routeLength="493.70" waitingTime="0.00" waitingCount="0" stopTime="0.00" timeLoss="0.67" rerouteNo="0" devices="tripinfo_flow_10.19" vType="human" speedFactor="1.03" vaporized=""/>
    <tripinfo id="flow_00.19" depart="381.00" departLane="left1_0_0" departPos="5.10" departSpeed="5.00" departDelay="0.00" arrival="427.00" arrivalLane="left0_0_0" arrivalPos="240.00" arrivalSpeed="11.05" duration="46.00" routeLength="493.70" waitingTime="0.00" waitingCount="0" stopTime="0.00" timeLoss="0.62" rerouteNo="0" devices="tripinfo_flow_00.19" vType="human" speedFactor="1.00" vaporized=""/>
    <tripinfo id="flow_00.20" depart="401.00" departLane="left1_0_0" departPos="5.10" departSpeed="5.00" departDelay="0.00" arrival="449.00" arrivalLane="left0_0_0" arrivalPos="240.00" arrivalSpeed="10.51" duration="48.00" routeLength="493.70" waitingTime="0.00" waitingCount="0" stopTime="0.00" timeLoss="0.55" rerouteNo="0" devices="tripinfo_flow_00.20" vType="human" speedFactor="0.96" vaporized=""/>
    <tripinfo id="flow_10.20" depart="401.00" departLane="right0_0_0" departPos="5.10" departSpeed="5.00" departDelay="0.00" arrival="451.00" arrivalLane="right1_0_0" arrivalPos="240.00" arrivalSpeed="10.11" duration="50.00" routeLength="493.70" waitingTime="0.00" waitingCount="0" stopTime="0.00" timeLoss="0.48" rerouteNo="0" devices="tripinfo_flow_10.20" vType="human" speedFactor="0.92" vaporized=""/>
    <tripinfo id="flow_10.21" depart="421.00" departLane="right0_0_0" departPos="5.10" departSpeed="5.00" departDelay="0.00" arrival="464.00" arrivalLane="right1_0_0" arrivalPos="240.00" arrivalSpeed="11.90" duration="43.00" routeLength="493.70" waitingTime="0.00" waitingCount="0" stopTime="0.00" timeLoss="0.82" rerouteNo="0" devices="tripinfo_flow_10.21" vType="human" speedFactor="1.08" vaporized=""/>
    <tripinfo id="flow_00.21" depart="421.00" departLane="left1_0_0" departPos="5.10" departSpeed="5.00" departDelay="0.00" arrival="466.00" arrivalLane="left0_0_0" arrivalPos="240.00" arrivalSpeed="11.33" duration="45.00" routeLength="493.70" waitingTime="0.00" waitingCount="0" stopTime="0.00" timeLoss="0.70" rerouteNo="0" devices="tripinfo_flow_00.21" vType="human" speedFactor="1.03" vaporized=""/>
    <tripinfo id="flow_00.22" depart="441.00" departLane="left1_0_0" departPos="5.10" departSpeed="5.00" departDelay="0.00" arrival="483.00" arrivalLane="left0_0_0" arrivalPos="240.00" arrivalSpeed="12.05" duration="42.00" routeLength="493.70" waitingTime="0.00" waitingCount="0" stopTime="0.00" timeLoss="0.81" rerouteNo="0" devices="tripinfo_flow_00.22" vType="human" speedFactor="1.10" vaporized=""/>
    <tripinfo id="flow_10.22" depart="441.00" departLane="right0_0_0" departPos="5.10" departSpeed="5.00" departDelay="0.00" arrival="484.00" arrivalLane="right1_0_0" arrivalPos="240.00" arrivalSpeed="11.75" duration="43.00" routeLength="493.70" waitingTime="0.00" waitingCount="0" stopTime="0.00" timeLoss="0.74" rerouteNo="0" devices="tripinfo_flow_10.22" vType="human" speedFactor="1.07" vaporized=""/>
    <tripinfo id="flow_00.23" depart="461.00" departLane="left1_0_0" departPos="5.10" departSpeed="5.00" departDelay="0.00" arrival="509.00" arrivalLane="left0_0_0" arrivalPos="240.00" arrivalSpeed="10.42" duration="48.00" routeLength="493.70" waitingTime="0.00" waitingCount="0" stopTime="0.00" timeLoss="0.53" rerouteNo="0" devices="tripinfo_flow_00.23" vType="human" speedFactor="0.95" vaporized=""/>
    <tripinfo id="flow_10.23" depart="461.00" departLane="right0_0_0" departPos="5.10" departSpeed="5.00" departDelay="0.00" arrival="513.00" arrivalLane="right1_0_0" arrivalPos="240.00" arrivalSpeed="9.62" duration="52.00" routeLength="493.70" waitingTime="0.00" waitingCount="0" stopTime="0.00" timeLoss="0.41" rerouteNo="0" devices="tripinfo_flow_10.23" vType="human" speedFactor="0.87" vaporized=""/>
    <tripinfo id="flow_10.24" depart="481.00" departLane="right0_0_0" departPos="5.10" departSpeed="5.00" departDelay="0.00" arrival="528.00" arrivalLane="right1_0_0" arrivalPos="240.00" arrivalSpeed="10.83" duration="47.00" routeLength="493.70" waitingTime="0.00" waitingCount="0" stopTime="0.00" timeLoss="0.64" rerouteNo="0" devices="tripinfo_flow_10.24" vType="human" speedFactor="0.98" vaporized=""/>
    <tripinfo id="flow_00.24" depart="481.00" departLane="left1_0_0" departPos="5.10" departSpeed="5.00" departDelay="0.00" arrival="529.00" arrivalLane="left0_0_0" arrivalPos="240.00" arrivalSpeed="10.58" duration="48.00" routeLength="493.70" waitingTime="0.00" waitingCount="0" stopTime="0.00" timeLoss="0.57" rerouteNo="0" devices="tripinfo_flow_00.24" vType="human" speedFactor="0.96" vaporized=""/>
    <tripinfo id="flow_00.25" depart="501.00" departLane="left1_0_0" departPos="5.10" departSpeed="5.00" departDelay="0.00" arrival="544.00" arrivalLane="left0_0_0" arrivalPos="240.00" arrivalSpeed="11.74" duration="43.00" routeLength="493.70" waitingTime="0.00" waitingCount="0" stopTime="0.00" timeLoss="0.77" rerouteNo="0" devices="tripinfo_flow_00.25" vType="human" speedFactor="1.07" vaporized=""/>
    <tripinfo id="flow_10.25" depart="501.00" departLane="right0_0_0" departPos="5.10" departSpeed="5.00" departDelay="0.00" arrival="551.00" arrivalLane="right1_0_0" arrivalPos="240.00" arrivalSpeed="10.01" duration="50.00" routeLength="493.70" waitingTime="0.00" waitingCount="0" stopTime="0.00" timeLoss="0.47" rerouteNo="0" devices="tripinfo_flow_10.25" vType="human" speedFactor="0.91" vaporized=""/>
    <tripinfo id="flow_00.26" depart="521.00" departLane="left1_0_0" departPos="5.10" departSpeed="5.00" departDelay="0.00" arrival="559.00" arrivalLane="left0_0_0" arrivalPos="240.00" arrivalSpeed="13.67" duration="38.00" routeLength="493.70" waitingTime="0.00" waitingCount="0" stopTime="0.00" timeLoss="1.10" rerouteNo="0" devices="tripinfo_flow_00.26" vType="human" speedFactor="1.24" vaporized=""/>
    <tripinfo id="flow_10.26" depart="521.00" departLane="right0_0_0" departPos="5.10" departSpeed="5.00" departDelay="0.00" arrival="563.00" arrivalLane="right1_0_0" arrivalPos="240.00" arrivalSpeed="12.21" duration="42.00" routeLength="493.70" waitingTime="0.00" waitingCount="0" stopTime="0.00" timeLoss="0.88" rerouteNo="0" devices="tripinfo_flow_10.26" vType="human" speedFactor="1.11" vaporized=""/>
    <tripinfo id="flow_10.27" depart="541.00" departLane="right0_0_0" departPos="5.10" departSpeed="5.00" departDelay="0.00" arrival="589.00" arrivalLane="right1_0_0" arrivalPos="240.00" arrivalSpeed="10.54" duration="48.00" routeLength="493.70" waitingTime="0.00" waitingCount="0" stopTime="0.00" timeLoss="0.54" rerouteNo="0" devices="tripinfo_flow_10.27" vType="human" speedFactor="0.96" vaporized=""/>
    <tripinfo id="flow_00.27" depart="541.00" departLane="left1_0_0" departPos="5.10" departSpeed="5.00" departDelay="0.00" arrival="591.00" arrivalLane="left0_0_0" arrivalPos="240.00" arrivalSpeed="10.02" duration="50.00" routeLength="493.70" waitingTime="0.00" waitingCount="0" stopTime="0.00" timeLoss="0.46" rerouteNo="0" devices="tripinfo_flow_00.27" vType="human" speedFactor="0.91" vaporized=""/>
    <tripinfo id="flow_00.28" depart="561.00" departLane="left1_0_0" departPos="5.10" departSpeed="5.00" departDelay="0.00" arrival="606.00" arrivalLane="left0_0_0" arrivalPos="240.00" arrivalSpeed="11.26" duration="45.00" routeLength="493.70" waitingTime="0.00" waitingCount="0" stopTime="0.00" timeLoss="0.70" rerouteNo="0" devices="tripinfo_flow_00.28" vType="human" speedFactor="1.02" vaporized=""/>
    <tripinfo id="flow_10.28" depart="561.00" departLane="right0_0_0" departPos="5.10" departSpeed="5.00" departDelay="0.00" arrival="607.00" arrivalLane="right1_0_0" arrivalPos="240.00" arrivalSpeed="11.12" duration="46.00" routeLength="493.70" waitingTime="0.00" waitingCount="0" stopTime="0.00" timeLoss="0.66" rerouteNo="0" devices="tripinfo_flow_10.28" vType="human" speedFactor="1.01" vaporized=""/>
    <tripinfo id="flow_00.29" depart="581.00" departLane="left1_0_0" departPos="5.10" departSpeed="5.00" departDelay="0.00" arrival="628.00" arrivalLane="left0_0_0" arrivalPos="240.00" arrivalSpeed="10.86" duration="47.00" routeLength="493.70" waitingTime="0.00" waitingCount="0" stopTime="0.00" timeLoss="0.60" rerouteNo="0" devices="tripinfo_flow_00.29" vType="human" speedFactor="0.99" vaporized=""/>
    <tripinfo id="flow_10.29" depart="581.00" departLane="right0_0_0" departPos="5.10" departSpeed="5.00" departDelay="0.00" arrival="628.00" arrivalLane="right1_0_0" arrivalPos="240.00" arrivalSpeed="10.77" duration="47.00" routeLength="493.70" waitingTime="0.00" waitingCount="0" stopTime="0.00" timeLoss="0.59" rerouteNo="0" devices="tripinfo_flow_10.29" vType="human" speedFactor="0.98" vaporized=""/>
    <tripinfo id="flow_10.30" depart="601.00" departLane="right0_0_0" departPos="5.10" departSpeed="5.00" departDelay="0.00" arrival="642.00" arrivalLane="right1_0_0" arrivalPos="240.00" arrivalSpeed="12.45" duration="41.00" routeLength="493.70" waitingTime="0.00" waitingCount="0" stopTime="0.00" timeLoss="0.90" rerouteNo="0" devices="tripinfo_flow_10.30" vType="human" speedFactor="1.13" vaporized=""/>
    <tripinfo id="flow_00.30" depart="601.00" departLane="left1_0_0" departPos="5.10" departSpeed="5.00" departDelay="0.00" arrival="661.00" arrivalLane="left0_0_0" arrivalPos="240.00" arrivalSpeed="8.28" duration="60.00" routeLength="493.70" waitingTime="0.00" waitingCount="0" stopTime="0.00" timeLoss="0.23" rerouteNo="0" devices="tripinfo_flow_00.30" vType="human" speedFactor="0.75" vaporized=""/>
    <tripinfo id="flow_00.31" depart="621.00" departLane="left1_0_0" departPos="5.10" departSpeed="5.00" departDelay="0.00" arrival="668.00" arrivalLane="left0_0_0" arrivalPos="240.00" arrivalSpeed="10.68" duration="47.00" routeLength="493.70" waitingTime="0.00" waitingCount="0" stopTime="0.00" timeLoss="0.77" rerouteNo="0" devices="tripinfo_flow_00.31" vType="human" speedFactor="0.97" vaporized=""/>
    <tripinfo id="flow_10.31" depart="621.00" departLane="right0_0_0" departPos="5.10" departSpeed="5.00" departDelay="0.00" arrival="674.00" arrivalLane="right1_0_0" arrivalPos="240.00" arrivalSpeed="9.53" duration="53.00" routeLength="493.70" waitingTime="0.00" waitingCount="0" stopTime="0.00" timeLoss="0.39" rerouteNo="0" devices="tripinfo_flow_10.31" vType="human" speedFactor="0.87" vaporized=""/>
    <tripinfo id="flow_00.32" depart="641.00" departLane="left1_0_0" departPos="5.10" departSpeed="5.00" departDelay="0.00" arrival="687.00" arrivalLane="left0_0_0" arrivalPos="240.00" arrivalSpeed="10.89" duration="46.00" routeLength="493.70" waitingTime="0.00" waitingCount="0" stopTime="0.00" timeLoss="0.62" rerouteNo="0" devices="tripinfo_flow_00.32" vType="human" speedFactor="0.99" vaporized=""/>
    <tripinfo id="flow_10.32" depart="641.00" departLane="right0_0_0" departPos="5.10" departSpeed="5.00" departDelay="0.00" arrival="688.00" arrivalLane="right1_0_0" arrivalPos="240.00" arrivalSpeed="10.66" duration="47.00" routeLength="493.70" waitingTime="0.00" waitingCount="0" stopTime="0.00" timeLoss="0.61" rerouteNo="0" devices="tripinfo_flow_10.32" vType="human" speedFactor="0.97" vaporized=""/>
    <tripinfo id="flow_00.33" depart="661.00" departLane="left1_0_0" departPos="5.10" departSpeed="5.00" departDelay="0.00" arrival="708.00" arrivalLane="left0_0_0" arrivalPos="240.00" arrivalSpeed="10.77" duration="47.00" routeLength="493.70" waitingTime="0.00" waitingCount="0" stopTime="0.00" timeLoss="0.59" rerouteNo="0" devices="tripinfo_flow_00.33" vType="human" speedFactor="0.98" vaporized=""/>
    <tripinfo id="flow_10.33" depart="661.00" departLane="right0_0_0" departPos="5.10" departSpeed="5.00" departDelay="0.00" arrival="712.00" arrivalLane="right1_0_0" arrivalPos="240.00" arrivalSpeed="9.79" duration="51.00" routeLength="493.70" waitingTime="0.00" waitingCount="0" stopTime="0.00" timeLoss="0.44" rerouteNo="0" devices="tripinfo_flow_10.33" vType="human" speedFactor="0.89" vaporized=""/>
    <tripinfo id="flow_00.34" depart="681.00" departLane="left1_0_0" departPos="5.10" departSpeed="5.00" departDelay="0.00" arrival="723.00" arrivalLane="left0_0_0" arrivalPos="240.00" arrivalSpeed="12.13" duration="42.00" routeLength="493.70" waitingTime="0.00" waitingCount="0" stopTime="0.00" timeLoss="0.83" rerouteNo="0" devices="tripinfo_flow_00.34" vType="human" speedFactor="1.10" vaporized=""/>