<?xml version="1.0" encoding="UTF-8"?>

<!-- generated on Fri Jul 17 21:39:51 2020 by Eclipse SUMO Version v1_6_0+0474-c178882b35
<configuration xmlns:xsi="http://www.w3.org/2001/XMLSchema-instance" xsi:noNamespaceSchemaLocation="http://sumo.dlr.de/xsd/sumoConfiguration.xsd">

    <input>
        <net-file value="/usr/local/google/home/gilbertbahati/flow/flow/core/kernel/network/debug/cfg/grid-trail_20200717-2139491595021989.1618018.net.xml"/>
        <route-files value="/usr/local/google/home/gilbertbahati/flow/flow/core/kernel/network/debug/cfg/grid-trail_20200717-2139491595021989.1618018.rou.xml"/>
        <additional-files value="/usr/local/google/home/gilbertbahati/flow/flow/core/kernel/network/debug/cfg/grid-trail_20200717-2139491595021989.1618018.add.xml"/>
    </input>

    <output>
        <tripinfo-output value="~/flow/data/grid-trail_20200717-2139491595021989.1618018-emission.xml"/>
    </output>

    <time>
        <begin value="0"/>
        <step-length value="1"/>
    </time>

    <processing>
        <collision.check-junctions value="true"/>
        <time-to-teleport value="-1"/>
    </processing>

    <report>
        <no-step-log value="true"/>
    </report>

    <traci_server>
        <remote-port value="33035"/>
        <num-clients value="1"/>
    </traci_server>

    <random_number>
        <seed value="36597"/>
    </random_number>

    <gui_only>
        <gui-settings-file value="/usr/local/google/home/gilbertbahati/flow/flow/core/kernel/network/debug/cfg/grid-trail_20200717-2139491595021989.1618018.gui.cfg"/>
        <tracker-interval value="1"/>
    </gui_only>

</configuration>
-->

<tripinfos xmlns:xsi="http://www.w3.org/2001/XMLSchema-instance" xsi:noNamespaceSchemaLocation="http://sumo.dlr.de/xsd/tripinfo_file.xsd">
    <tripinfo id="flow_60.0" depart="1.00" departLane="bot1_0_0" departPos="5.10" departSpeed="5.00" departDelay="0.00" arrival="76.00" arrivalLane="bot1_2_0" arrivalPos="240.00" arrivalSpeed="11.37" duration="75.00" routeLength="752.50" waitingTime="0.00" waitingCount="0" stopTime="0.00" timeLoss="8.33" rerouteNo="0" devices="tripinfo_flow_60.0" vType="human" speedFactor="1.03" vaporized=""/>
    <tripinfo id="flow_40.0" depart="1.00" departLane="bot0_0_0" departPos="5.10" departSpeed="5.00" departDelay="0.00" arrival="78.00" arrivalLane="bot0_2_0" arrivalPos="240.00" arrivalSpeed="10.80" duration="77.00" routeLength="752.50" waitingTime="0.00" waitingCount="0" stopTime="0.00" timeLoss="7.07" rerouteNo="0" devices="tripinfo_flow_40.0" vType="human" speedFactor="0.98" vaporized=""/>
    <tripinfo id="flow_60.1" depart="4.00" departLane="bot1_0_0" departPos="5.10" departSpeed="5.00" departDelay="0.43" arrival="78.00" arrivalLane="bot1_2_0" arrivalPos="240.00" arrivalSpeed="12.53" duration="74.00" routeLength="752.50" waitingTime="0.00" waitingCount="0" stopTime="0.00" timeLoss="15.00" rerouteNo="0" devices="tripinfo_flow_60.1" vType="human" speedFactor="1.16" vaporized=""/>
    <tripinfo id="flow_70.0" depart="1.00" departLane="top1_2_0" departPos="5.10" departSpeed="5.00" departDelay="0.00" arrival="80.00" arrivalLane="top1_0_0" arrivalPos="240.00" arrivalSpeed="10.36" duration="79.00" routeLength="752.50" waitingTime="0.00" waitingCount="0" stopTime="0.00" timeLoss="5.99" rerouteNo="0" devices="tripinfo_flow_70.0" vType="human" speedFactor="0.94" vaporized=""/>
    <tripinfo id="flow_40.1" depart="4.00" departLane="bot0_0_0" departPos="5.10" departSpeed="5.00" departDelay="0.43" arrival="82.00" arrivalLane="bot0_2_0" arrivalPos="240.00" arrivalSpeed="11.21" duration="78.00" routeLength="752.50" waitingTime="0.00" waitingCount="0" stopTime="0.00" timeLoss="10.01" rerouteNo="0" devices="tripinfo_flow_40.1" vType="human" speedFactor="1.02" vaporized=""/>
    <tripinfo id="flow_40.2" depart="7.00" departLane="bot0_0_0" departPos="5.10" departSpeed="5.00" departDelay="0.86" arrival="85.00" arrivalLane="bot0_2_0" arrivalPos="240.00" arrivalSpeed="11.18" duration="78.00" routeLength="752.50" waitingTime="0.00" waitingCount="0" stopTime="0.00" timeLoss="10.09" rerouteNo="0" devices="tripinfo_flow_40.2" vType="human" speedFactor="1.02" vaporized=""/>
    <tripinfo id="flow_60.2" depart="7.00" departLane="bot1_0_0" departPos="5.10" departSpeed="5.00" departDelay="0.86" arrival="87.00" arrivalLane="bot1_2_0" arrivalPos="240.00" arrivalSpeed="9.98" duration="80.00" routeLength="752.50" waitingTime="0.00" waitingCount="0" stopTime="0.00" timeLoss="4.51" rerouteNo="0" devices="tripinfo_flow_60.2" vType="human" speedFactor="0.91" vaporized=""/>
    <tripinfo id="flow_50.0" depart="1.00" departLane="top0_2_0" departPos="5.10" departSpeed="5.00" departDelay="0.00" arrival="88.00" arrivalLane="top0_0_0" arrivalPos="240.00" arrivalSpeed="8.93" duration="87.00" routeLength="752.50" waitingTime="0.00" waitingCount="0" stopTime="0.00" timeLoss="1.76" rerouteNo="0" devices="tripinfo_flow_50.0" vType="human" speedFactor="0.81" vaporized=""/>
    <tripinfo id="flow_50.1" depart="4.00" departLane="top0_2_0" departPos="5.10" departSpeed="5.00" departDelay="0.43" arrival="90.00" arrivalLane="top0_0_0" arrivalPos="240.00" arrivalSpeed="10.30" duration="86.00" routeLength="752.50" waitingTime="0.00" waitingCount="0" stopTime="0.00" timeLoss="13.78" rerouteNo="0" devices="tripinfo_flow_50.1" vType="human" speedFactor="0.96" vaporized=""/>
    <tripinfo id="flow_60.3" depart="9.00" departLane="bot1_0_0" departPos="5.10" departSpeed="5.00" departDelay="0.29" arrival="91.00" arrivalLane="bot1_2_0" arrivalPos="240.00" arrivalSpeed="10.24" duration="82.00" routeLength="752.50" waitingTime="0.00" waitingCount="0" stopTime="0.00" timeLoss="7.96" rerouteNo="0" devices="tripinfo_flow_60.3" vType="human" speedFactor="0.93" vaporized=""/>
    <tripinfo id="flow_50.2" depart="7.00" departLane="top0_2_0" departPos="5.10" departSpeed="5.00" departDelay="0.86" arrival="92.00" arrivalLane="top0_0_0" arrivalPos="240.00" arrivalSpeed="10.86" duration="85.00" routeLength="752.50" waitingTime="0.00" waitingCount="0" stopTime="0.00" timeLoss="17.11" rerouteNo="0" devices="tripinfo_flow_50.2" vType="human" speedFactor="1.02" vaporized=""/>
    <tripinfo id="flow_60.4" depart="12.00" departLane="bot1_0_0" departPos="5.10" departSpeed="5.00" departDelay="0.72" arrival="93.00" arrivalLane="bot1_2_0" arrivalPos="240.00" arrivalSpeed="11.66" duration="81.00" routeLength="752.50" waitingTime="0.00" waitingCount="0" stopTime="0.00" timeLoss="17.96" rerouteNo="0" devices="tripinfo_flow_60.4" vType="human" speedFactor="1.09" vaporized=""/>
    <tripinfo id="flow_70.1" depart="4.00" departLane="top1_2_0" departPos="5.10" departSpeed="5.00" departDelay="0.43" arrival="94.00" arrivalLane="top1_0_0" arrivalPos="240.00" arrivalSpeed="8.53" duration="90.00" routeLength="752.50" waitingTime="0.00" waitingCount="0" stopTime="0.00" timeLoss="1.45" rerouteNo="0" devices="tripinfo_flow_70.1" vType="human" speedFactor="0.78" vaporized=""/>
    <tripinfo id="flow_50.3" depart="9.00" departLane="top0_2_0" departPos="5.10" departSpeed="5.00" departDelay="0.29" arrival="94.00" arrivalLane="top0_0_0" arrivalPos="240.00" arrivalSpeed="10.65" duration="85.00" routeLength="752.50" waitingTime="0.00" waitingCount="0" stopTime="0.00" timeLoss="15.43" rerouteNo="0" devices="tripinfo_flow_50.3" vType="human" speedFactor="0.99" vaporized=""/>
    <tripinfo id="flow_60.5" depart="14.00" departLane="bot1_0_0" departPos="5.10" departSpeed="5.00" departDelay="0.15" arrival="95.00" arrivalLane="bot1_2_0" arrivalPos="240.00" arrivalSpeed="11.92" duration="81.00" routeLength="752.50" waitingTime="0.00" waitingCount="0" stopTime="0.00" timeLoss="19.55" rerouteNo="0" devices="tripinfo_flow_60.5" vType="human" speedFactor="1.12" vaporized=""/>
    <tripinfo id="flow_70.2" depart="7.00" departLane="top1_2_0" departPos="5.10" departSpeed="5.00" departDelay="0.86" arrival="96.00" arrivalLane="top1_0_0" arrivalPos="240.00" arrivalSpeed="11.21" duration="89.00" routeLength="752.50" waitingTime="0.00" waitingCount="0" stopTime="0.00" timeLoss="25.89" rerouteNo="0" devices="tripinfo_flow_70.2" vType="human" speedFactor="1.09" vaporized=""/>
    <tripinfo id="flow_50.4" depart="12.00" departLane="top0_2_0" departPos="5.10" departSpeed="5.00" departDelay="0.72" arrival="97.00" arrivalLane="top0_0_0" arrivalPos="240.00" arrivalSpeed="10.18" duration="85.00" routeLength="752.50" waitingTime="0.00" waitingCount="0" stopTime="0.00" timeLoss="10.57" rerouteNo="0" devices="tripinfo_flow_50.4" vType="human" speedFactor="0.93" vaporized=""/>
    <tripinfo id="flow_60.6" depart="17.00" departLane="bot1_0_0" departPos="5.10" departSpeed="5.00" departDelay="0.57" arrival="97.00" arrivalLane="bot1_2_0" arrivalPos="240.00" arrivalSpeed="11.98" duration="80.00" routeLength="752.50" waitingTime="0.00" waitingCount="0" stopTime="0.00" timeLoss="18.86" rerouteNo="0" devices="tripinfo_flow_60.6" vType="human" speedFactor="1.13" vaporized=""/>
    <tripinfo id="flow_70.3" depart="9.00" departLane="top1_2_0" departPos="5.10" departSpeed="5.00" departDelay="0.29" arrival="98.00" arrivalLane="top1_0_0" arrivalPos="240.00" arrivalSpeed="10.13" duration="89.00" routeLength="752.50" waitingTime="0.00" waitingCount="0" stopTime="0.00" timeLoss="15.73" rerouteNo="0" devices="tripinfo_flow_70.3" vType="human" speedFactor="0.94" vaporized=""/>
    <tripinfo id="flow_50.5" depart="14.00" departLane="top0_2_0" departPos="5.10" departSpeed="5.00" departDelay="0.15" arrival="99.00" arrivalLane="top0_0_0" arrivalPos="240.00" arrivalSpeed="11.15" duration="85.00" routeLength="752.50" waitingTime="0.00" waitingCount="0" stopTime="0.00" timeLoss="18.79" rerouteNo="0" devices="tripinfo_flow_50.5" vType="human" speedFactor="1.04" vaporized=""/>
    <tripinfo id="flow_40.3" depart="9.00" departLane="bot0_0_0" departPos="5.10" departSpeed="5.00" departDelay="0.29" arrival="100.00" arrivalLane="bot0_2_0" arrivalPos="240.00" arrivalSpeed="8.50" duration="91.00" routeLength="752.50" waitingTime="0.00" waitingCount="0" stopTime="0.00" timeLoss="1.55" rerouteNo="0" devices="tripinfo_flow_40.3" vType="human" speedFactor="0.77" vaporized=""/>
    <tripinfo id="flow_70.4" depart="12.00" departLane="top1_2_0" departPos="5.10" departSpeed="5.00" departDelay="0.72" arrival="100.00" arrivalLane="top1_0_0" arrivalPos="240.00" arrivalSpeed="10.91" duration="88.00" routeLength="752.50" waitingTime="0.00" waitingCount="0" stopTime="0.00" timeLoss="21.24" rerouteNo="0" devices="tripinfo_flow_70.4" vType="human" speedFactor="1.03" vaporized=""/>
    <tripinfo id="flow_40.4" depart="12.00" departLane="bot0_0_0" departPos="5.10" departSpeed="5.00" departDelay="0.72" arrival="102.00" arrivalLane="bot0_2_0" arrivalPos="240.00" arrivalSpeed="10.02" duration="90.00" routeLength="752.50" waitingTime="0.00" waitingCount="0" stopTime="0.00" timeLoss="15.89" rerouteNo="0" devices="tripinfo_flow_40.4" vType="human" speedFactor="0.93" vaporized=""/>
    <tripinfo id="flow_70.5" depart="14.00" departLane="top1_2_0" departPos="5.10" departSpeed="5.00" departDelay="0.15" arrival="102.00" arrivalLane="top1_0_0" arrivalPos="240.00" arrivalSpeed="11.91" duration="88.00" routeLength="752.50" waitingTime="0.00" waitingCount="0" stopTime="0.00" timeLoss="28.51" rerouteNo="0" devices="tripinfo_flow_70.5" vType="human" speedFactor="1.16" vaporized=""/>
    <tripinfo id="flow_50.6" depart="17.00" departLane="top0_2_0" departPos="5.10" departSpeed="5.00" departDelay="0.57" arrival="102.00" arrivalLane="top0_0_0" arrivalPos="240.00" arrivalSpeed="9.81" duration="85.00" routeLength="752.50" waitingTime="0.00" waitingCount="0" stopTime="0.00" timeLoss="7.70" rerouteNo="0" devices="tripinfo_flow_50.6" vType="human" speedFactor="0.89" vaporized=""/>
    <tripinfo id="flow_40.5" depart="14.00" departLane="bot0_0_0" departPos="5.10" departSpeed="5.00" departDelay="0.15" arrival="104.00" arrivalLane="bot0_2_0" arrivalPos="240.00" arrivalSpeed="10.98" duration="90.00" routeLength="752.50" waitingTime="0.00" waitingCount="0" stopTime="0.00" timeLoss="23.68" rerouteNo="0" devices="tripinfo_flow_40.5" vType="human" speedFactor="1.04" vaporized=""/>
    <tripinfo id="flow_70.6" depart="17.00" departLane="top1_2_0" departPos="5.10" departSpeed="5.00" departDelay="0.57" arrival="104.00" arrivalLane="top1_0_0" arrivalPos="240.00" arrivalSpeed="10.91" duration="87.00" routeLength="752.50" waitingTime="0.00" waitingCount="0" stopTime="0.00" timeLoss="19.59" rerouteNo="0" devices="tripinfo_flow_70.6" vType="human" speedFactor="1.02" vaporized=""/>
    <tripinfo id="flow_50.7" depart="19.00" departLane="top0_2_0" departPos="5.10" departSpeed="5.00" departDelay="0.00" arrival="104.00" arrivalLane="top0_0_0" arrivalPos="240.00" arrivalSpeed="11.15" duration="85.00" routeLength="752.50" waitingTime="0.00" waitingCount="0" stopTime="0.00" timeLoss="19.06" rerouteNo="0" devices="tripinfo_flow_50.7" vType="human" speedFactor="1.05" vaporized=""/>
    <tripinfo id="flow_50.8" depart="22.00" departLane="top0_2_0" departPos="5.10" departSpeed="5.00" departDelay="0.43" arrival="106.00" arrivalLane="top0_0_0" arrivalPos="240.00" arrivalSpeed="10.85" duration="84.00" routeLength="752.50" waitingTime="0.00" waitingCount="0" stopTime="0.00" timeLoss="15.68" rerouteNo="0" devices="tripinfo_flow_50.8" vType="human" speedFactor="1.01" vaporized=""/>
    <tripinfo id="flow_40.6" depart="17.00" departLane="bot0_0_0" departPos="5.10" departSpeed="5.00" departDelay="0.57" arrival="107.00" arrivalLane="bot0_2_0" arrivalPos="240.00" arrivalSpeed="9.14" duration="90.00" routeLength="752.50" waitingTime="0.00" waitingCount="0" stopTime="0.00" timeLoss="7.28" rerouteNo="0" devices="tripinfo_flow_40.6" vType="human" speedFactor="0.83" vaporized=""/>
    <tripinfo id="flow_70.7" depart="19.00" departLane="top1_2_0" departPos="5.10" departSpeed="5.00" departDelay="0.00" arrival="107.00" arrivalLane="top1_0_0" arrivalPos="240.00" arrivalSpeed="10.78" duration="88.00" routeLength="752.50" waitingTime="0.00" waitingCount="0" stopTime="0.00" timeLoss="17.84" rerouteNo="0" devices="tripinfo_flow_70.7" vType="human" speedFactor="0.99" vaporized=""/>
    <tripinfo id="flow_50.9" depart="25.00" departLane="top0_2_0" departPos="5.10" departSpeed="5.00" departDelay="0.86" arrival="108.00" arrivalLane="top0_0_0" arrivalPos="240.00" arrivalSpeed="10.73" duration="83.00" routeLength="752.50" waitingTime="0.00" waitingCount="0" stopTime="0.00" timeLoss="14.06" rerouteNo="0" devices="tripinfo_flow_50.9" vType="human" speedFactor="1.00" vaporized=""/>
    <tripinfo id="flow_40.7" depart="19.00" departLane="bot0_0_0" departPos="5.10" departSpeed="5.00" departDelay="0.00" arrival="109.00" arrivalLane="bot0_2_0" arrivalPos="240.00" arrivalSpeed="9.81" duration="90.00" routeLength="752.50" waitingTime="0.00" waitingCount="0" stopTime="0.00" timeLoss="14.20" rerouteNo="0" devices="tripinfo_flow_40.7" vType="human" speedFactor="0.90" vaporized=""/>
    <tripinfo id="flow_60.7" depart="19.00" departLane="bot1_0_0" departPos="5.10" departSpeed="5.00" departDelay="0.00" arrival="109.00" arrivalLane="bot1_2_0" arrivalPos="240.00" arrivalSpeed="8.59" duration="90.00" routeLength="752.50" waitingTime="0.00" waitingCount="0" stopTime="0.00" timeLoss="1.51" rerouteNo="0" devices="tripinfo_flow_60.7" vType="human" speedFactor="0.78" vaporized=""/>
    <tripinfo id="flow_70.8" depart="22.00" departLane="top1_2_0" departPos="5.10" departSpeed="5.00" departDelay="0.43" arrival="109.00" arrivalLane="top1_0_0" arrivalPos="240.00" arrivalSpeed="10.56" duration="87.00" routeLength="752.50" waitingTime="0.00" waitingCount="0" stopTime="0.00" timeLoss="16.34" rerouteNo="0" devices="tripinfo_flow_70.8" vType="human" speedFactor="0.98" vaporized=""/>
    <tripinfo id="flow_40.8" depart="22.00" departLane="bot0_0_0" departPos="5.10" departSpeed="5.00" departDelay="0.43" arrival="111.00" arrivalLane="bot0_2_0" arrivalPos="240.00" arrivalSpeed="12.14" duration="89.00" routeLength="752.50" waitingTime="0.00" waitingCount="0" stopTime="0.00" timeLoss="32.58" rerouteNo="0" devices="tripinfo_flow_40.8" vType="human" speedFactor="1.22" vaporized=""/>
    <tripinfo id="flow_60.8" depart="22.00" departLane="bot1_0_0" departPos="5.10" departSpeed="5.00" departDelay="0.43" arrival="111.00" arrivalLane="bot1_2_0" arrivalPos="240.00" arrivalSpeed="10.78" duration="89.00" routeLength="752.50" waitingTime="0.00" waitingCount="0" stopTime="0.00" timeLoss="21.41" rerouteNo="0" devices="tripinfo_flow_60.8" vType="human" speedFactor="1.03" vaporized=""/>
    <tripinfo id="flow_70.9" depart="25.00" departLane="top1_2_0" departPos="5.10" departSpeed="5.00" departDelay="0.86" arrival="111.00" arrivalLane="top1_0_0" arrivalPos="240.00" arrivalSpeed="10.10" duration="86.00" routeLength="752.50" waitingTime="0.00" waitingCount="0" stopTime="0.00" timeLoss="12.34" rerouteNo="0" devices="tripinfo_flow_70.9" vType="human" speedFactor="0.93" vaporized=""/>
    <tripinfo id="flow_50.10" depart="27.00" departLane="top0_2_0" departPos="5.10" departSpeed="5.00" departDelay="0.29" arrival="111.00" arrivalLane="top0_0_0" arrivalPos="240.00" arrivalSpeed="10.04" duration="84.00" routeLength="752.50" waitingTime="0.00" waitingCount="0" stopTime="0.00" timeLoss="8.71" rerouteNo="0" devices="tripinfo_flow_50.10" vType="human" speedFactor="0.92" vaporized=""/>
    <tripinfo id="flow_40.9" depart="25.00" departLane="bot0_0_0" departPos="5.10" departSpeed="5.00" departDelay="0.86" arrival="113.00" arrivalLane="bot0_2_0" arrivalPos="240.00" arrivalSpeed="10.58" duration="88.00" routeLength="752.50" waitingTime="0.00" waitingCount="0" stopTime="0.00" timeLoss="18.18" rerouteNo="0" devices="tripinfo_flow_40.9" vType="human" speedFactor="0.98" vaporized=""/>
    <tripinfo id="flow_60.9" depart="25.00" departLane="bot1_0_0" departPos="5.10" departSpeed="5.00" departDelay="0.86" arrival="113.00" arrivalLane="bot1_2_0" arrivalPos="240.00" arrivalSpeed="11.18" duration="88.00" routeLength="752.50" waitingTime="0.00" waitingCount="0" stopTime="0.00" timeLoss="22.66" rerouteNo="0" devices="tripinfo_flow_60.9" vType="human" speedFactor="1.06" vaporized=""/>
    <tripinfo id="flow_70.10" depart="27.00" departLane="top1_2_0" departPos="5.10" departSpeed="5.00" departDelay="0.29" arrival="113.00" arrivalLane="top1_0_0" arrivalPos="240.00" arrivalSpeed="11.05" duration="86.00" routeLength="752.50" waitingTime="0.00" waitingCount="0" stopTime="0.00" timeLoss="20.19" rerouteNo="0" devices="tripinfo_flow_70.10" vType="human" speedFactor="1.04" vaporized=""/>
    <tripinfo id="flow_50.11" depart="30.00" departLane="top0_2_0" departPos="5.10" departSpeed="5.00" departDelay="0.72" arrival="113.00" arrivalLane="top0_0_0" arrivalPos="240.00" arrivalSpeed="11.09" duration="83.00" routeLength="752.50" waitingTime="0.00" waitingCount="0" stopTime="0.00" timeLoss="16.66" rerouteNo="0" devices="tripinfo_flow_50.11" vType="human" speedFactor="1.04" vaporized=""/>
    <tripinfo id="flow_40.10" depart="27.00" departLane="bot0_0_0" departPos="5.10" departSpeed="5.00" departDelay="0.29" arrival="115.00" arrivalLane="bot0_2_0" arrivalPos="240.00" arrivalSpeed="10.88" duration="88.00" routeLength="752.50" waitingTime="0.00" waitingCount="0" stopTime="0.00" timeLoss="20.80" rerouteNo="0" devices="tripinfo_flow_40.10" vType="human" speedFactor="1.02" vaporized=""/>
    <tripinfo id="flow_60.10" depart="27.00" departLane="bot1_0_0" departPos="5.10" departSpeed="5.00" departDelay="0.29" arrival="115.00" arrivalLane="bot1_2_0" arrivalPos="240.00" arrivalSpeed="10.50" duration="88.00" routeLength="752.50" waitingTime="0.00" waitingCount="0" stopTime="0.00" timeLoss="17.12" rerouteNo="0" devices="tripinfo_flow_60.10" vType="human" speedFactor="0.97" vaporized=""/>
    <tripinfo id="flow_50.12" depart="32.00" departLane="top0_2_0" departPos="5.10" departSpeed="5.00" departDelay="0.15" arrival="115.00" arrivalLane="top0_0_0" arrivalPos="240.00" arrivalSpeed="11.40" duration="83.00" routeLength="752.50" waitingTime="0.00" waitingCount="0" stopTime="0.00" timeLoss="18.81" rerouteNo="0" devices="tripinfo_flow_50.12" vType="human" speedFactor="1.07" vaporized=""/>
    <tripinfo id="flow_70.11" depart="30.00" departLane="top1_2_0" departPos="5.10" departSpeed="5.00" departDelay="0.72" arrival="116.00" arrivalLane="top1_0_0" arrivalPos="240.00" arrivalSpeed="10.70" duration="86.00" routeLength="752.50" waitingTime="0.00" waitingCount="0" stopTime="0.00" timeLoss="15.29" rerouteNo="0" devices="tripinfo_flow_70.11" vType="human" speedFactor="0.98" vaporized=""/>
    <tripinfo id="flow_40.11" depart="30.00" departLane="bot0_0_0" departPos="5.10" departSpeed="5.00" departDelay="0.72" arrival="117.00" arrivalLane="bot0_2_0" arrivalPos="240.00" arrivalSpeed="11.20" duration="87.00" routeLength="752.50" waitingTime="0.00" waitingCount="0" stopTime="0.00" timeLoss="22.22" rerouteNo="0" devices="tripinfo_flow_40.11" vType="human" speedFactor="1.06" vaporized=""/>
    <tripinfo id="flow_60.11" depart="30.00" departLane="bot1_0_0" departPos="5.10" departSpeed="5.00" departDelay="0.72" arrival="117.00" arrivalLane="bot1_2_0" arrivalPos="240.00" arrivalSpeed="11.01" duration="87.00" routeLength="752.50" waitingTime="0.00" waitingCount="0" stopTime="0.00" timeLoss="20.27" rerouteNo="0" devices="tripinfo_flow_60.11" vType="human" speedFactor="1.03" vaporized=""/>
    <tripinfo id="flow_50.13" depart="35.00" departLane="top0_2_0" departPos="5.10" departSpeed="5.00" departDelay="0.58" arrival="117.00" arrivalLane="top0_0_0" arrivalPos="240.00" arrivalSpeed="10.49" duration="82.00" routeLength="752.50" waitingTime="0.00" waitingCount="0" stopTime="0.00" timeLoss="11.26" rerouteNo="0" devices="tripinfo_flow_50.13" vType="human" speedFactor="0.97" vaporized=""/>
    <tripinfo id="flow_60.12" depart="32.00" departLane="bot1_0_0" departPos="5.10" departSpeed="5.00" departDelay="0.15" arrival="119.00" arrivalLane="bot1_2_0" arrivalPos="240.00" arrivalSpeed="10.54" duration="87.00" routeLength="752.50" waitingTime="0.00" waitingCount="0" stopTime="0.00" timeLoss="16.69" rerouteNo="0" devices="tripinfo_flow_60.12" vType="human" speedFactor="0.98" vaporized=""/>
    <tripinfo id="flow_70.12" depart="32.00" departLane="top1_2_0" departPos="5.10" departSpeed="5.00" departDelay="0.15" arrival="119.00" arrivalLane="top1_0_0" arrivalPos="240.00" arrivalSpeed="9.19" duration="87.00" routeLength="752.50" waitingTime="0.00" waitingCount="0" stopTime="0.00" timeLoss="4.85" rerouteNo="0" devices="tripinfo_flow_70.12" vType="human" speedFactor="0.84" vaporized=""/>
    <tripinfo id="flow_50.14" depart="37.00" departLane="top0_2_0" departPos="5.10" departSpeed="5.00" departDelay="0.01" arrival="119.00" arrivalLane="top0_0_0" arrivalPos="240.00" arrivalSpeed="11.55" duration="82.00" routeLength="752.50" waitingTime="0.00" waitingCount="0" stopTime="0.00" timeLoss="19.49" rerouteNo="0" devices="tripinfo_flow_50.14" vType="human" speedFactor="1.10" vaporized=""/>
    <tripinfo id="flow_40.12" depart="32.00" departLane="bot0_0_0" departPos="5.10" departSpeed="5.00" departDelay="0.15" arrival="120.00" arrivalLane="bot0_2_0" arrivalPos="240.00" arrivalSpeed="11.11" duration="88.00" routeLength="752.50" waitingTime="0.00" waitingCount="0" stopTime="0.00" timeLoss="20.01" rerouteNo="0" devices="tripinfo_flow_40.12" vType="human" speedFactor="1.02" vaporized=""/>
    <tripinfo id="flow_60.13" depart="35.00" departLane="bot1_0_0" departPos="5.10" departSpeed="5.00" departDelay="0.58" arrival="121.00" arrivalLane="bot1_2_0" arrivalPos="240.00" arrivalSpeed="10.25" duration="86.00" routeLength="752.50" waitingTime="0.00" waitingCount="0" stopTime="0.00" timeLoss="13.72" rerouteNo="0" devices="tripinfo_flow_60.13" vType="human" speedFactor="0.95" vaporized=""/>
    <tripinfo id="flow_70.13" depart="35.00" departLane="top1_2_0" departPos="5.10" departSpeed="5.00" departDelay="0.58" arrival="121.00" arrivalLane="top1_0_0" arrivalPos="240.00" arrivalSpeed="10.92" duration="86.00" routeLength="752.50" waitingTime="0.00" waitingCount="0" stopTime="0.00" timeLoss="19.29" rerouteNo="0" devices="tripinfo_flow_70.13" vType="human" speedFactor="1.03" vaporized=""/>
    <tripinfo id="flow_50.15" depart="40.00" departLane="top0_2_0" departPos="5.10" departSpeed="5.00" departDelay="0.44" arrival="121.00" arrivalLane="top0_0_0" arrivalPos="240.00" arrivalSpeed="11.51" duration="81.00" routeLength="752.50" waitingTime="0.00" waitingCount="0" stopTime="0.00" timeLoss="17.91" rerouteNo="0" devices="tripinfo_flow_50.15" vType="human" speedFactor="1.09" vaporized=""/>
    <tripinfo id="flow_40.13" depart="35.00" departLane="bot0_0_0" departPos="5.10" departSpeed="5.00" departDelay="0.58" arrival="122.00" arrivalLane="bot0_2_0" arrivalPos="240.00" arrivalSpeed="10.67" duration="87.00" routeLength="752.50" waitingTime="0.00" waitingCount="0" stopTime="0.00" timeLoss="17.06" rerouteNo="0" devices="tripinfo_flow_40.13" vType="human" speedFactor="0.99" vaporized=""/>
    <tripinfo id="flow_70.14" depart="37.00" departLane="top1_2_0" departPos="5.10" departSpeed="5.00" departDelay="0.01" arrival="123.00" arrivalLane="top1_0_0" arrivalPos="240.00" arrivalSpeed="11.66" duration="86.00" routeLength="752.50" waitingTime="0.00" waitingCount="0" stopTime="0.00" timeLoss="24.44" rerouteNo="0" devices="tripinfo_flow_70.14" vType="human" speedFactor="1.12" vaporized=""/>
    <tripinfo id="flow_50.16" depart="43.00" departLane="top0_2_0" departPos="5.10" departSpeed="5.00" departDelay="0.86" arrival="125.00" arrivalLane="top0_0_0" arrivalPos="240.00" arrivalSpeed="9.88" duration="82.00" routeLength="752.50" waitingTime="0.00" waitingCount="0" stopTime="0.00" timeLoss="4.90" rerouteNo="0" devices="tripinfo_flow_50.16" vType="human" speedFactor="0.90" vaporized=""/>
    <tripinfo id="flow_40.14" depart="37.00" departLane="bot0_0_0" departPos="5.10" departSpeed="5.00" departDelay="0.01" arrival="127.00" arrivalLane="bot0_2_0" arrivalPos="240.00" arrivalSpeed="8.71" duration="90.00" routeLength="752.50" waitingTime="0.00" waitingCount="0" stopTime="0.00" timeLoss="3.01" rerouteNo="0" devices="tripinfo_flow_40.14" vType="human" speedFactor="0.79" vaporized=""/>
    <tripinfo id="flow_70.15" depart="40.00" departLane="top1_2_0" departPos="5.10" departSpeed="5.00" departDelay="0.44" arrival="127.00" arrivalLane="top1_0_0" arrivalPos="240.00" arrivalSpeed="9.07" duration="87.00" routeLength="752.50" waitingTime="0.00" waitingCount="0" stopTime="0.00" timeLoss="3.69" rerouteNo="0" devices="tripinfo_flow_70.15" vType="human" speedFactor="0.82" vaporized=""/>
    <tripinfo id="flow_50.17" depart="45.00" departLane="top0_2_0" departPos="5.10" departSpeed="5.00" departDelay="0.29" arrival="127.00" arrivalLane="top0_0_0" arrivalPos="240.00" arrivalSpeed="10.94" duration="82.00" routeLength="752.50" waitingTime="0.00" waitingCount="0" stopTime="0.00" timeLoss="14.12" rerouteNo="0" devices="tripinfo_flow_50.17" vType="human" speedFactor="1.02" vaporized=""/>
    <tripinfo id="flow_60.14" depart="37.00" departLane="bot1_0_0" departPos="5.10" departSpeed="5.00" departDelay="0.01" arrival="129.00" arrivalLane="bot1_2_0" arrivalPos="240.00" arrivalSpeed="8.43" duration="92.00" routeLength="752.50" waitingTime="0.00" waitingCount="0" stopTime="0.00" timeLoss="2.05" rerouteNo="0" devices="tripinfo_flow_60.14" vType="human" speedFactor="0.77" vaporized=""/>
    <tripinfo id="flow_40.15" depart="40.00" departLane="bot0_0_0" departPos="5.10" departSpeed="5.00" departDelay="0.44" arrival="129.00" arrivalLane="bot0_2_0" arrivalPos="240.00" arrivalSpeed="10.48" duration="89.00" routeLength="752.50" waitingTime="0.00" waitingCount="0" stopTime="0.00" timeLoss="18.95" rerouteNo="0" devices="tripinfo_flow_40.15" vType="human" speedFactor="0.98" vaporized=""/>
    <tripinfo id="flow_70.16" depart="43.00" departLane="top1_2_0" departPos="5.10" departSpeed="5.00" departDelay="0.86" arrival="129.00" arrivalLane="top1_0_0" arrivalPos="240.00" arrivalSpeed="10.54" duration="86.00" routeLength="752.50" waitingTime="0.00" waitingCount="0" stopTime="0.00" timeLoss="16.20" rerouteNo="0" devices="tripinfo_flow_70.16" vType="human" speedFactor="0.98" vaporized=""/>
    <tripinfo id="flow_50.18" depart="48.00" departLane="top0_2_0" departPos="5.10" departSpeed="5.00" departDelay="0.72" arrival="129.00" arrivalLane="top0_0_0" arrivalPos="240.00" arrivalSpeed="10.45" duration="81.00" routeLength="752.50" waitingTime="0.00" waitingCount="0" stopTime="0.00" timeLoss="9.68" rerouteNo="0" devices="tripinfo_flow_50.18" vType="human" speedFactor="0.96" vaporized=""/>
    <tripinfo id="flow_60.15" depart="40.00" departLane="bot1_0_0" departPos="5.10" departSpeed="5.00" departDelay="0.44" arrival="131.00" arrivalLane="bot1_2_0" arrivalPos="240.00" arrivalSpeed="10.17" duration="91.00" routeLength="752.50" waitingTime="0.00" waitingCount="0" stopTime="0.00" timeLoss="18.52" rerouteNo="0" devices="tripinfo_flow_60.15" vType="human" speedFactor="0.95" vaporized=""/>
    <tripinfo id="flow_40.16" depart="43.00" departLane="bot0_0_0" departPos="5.10" departSpeed="5.00" departDelay="0.86" arrival="131.00" arrivalLane="bot0_2_0" arrivalPos="240.00" arrivalSpeed="11.14" duration="88.00" routeLength="752.50" waitingTime="0.00" waitingCount="0" stopTime="0.00" timeLoss="22.72" rerouteNo="0" devices="tripinfo_flow_40.16" vType="human" speedFactor="1.06" vaporized=""/>
    <tripinfo id="flow_70.17" depart="45.00" departLane="top1_2_0" departPos="5.10" departSpeed="5.00" departDelay="0.29" arrival="131.00" arrivalLane="top1_0_0" arrivalPos="240.00" arrivalSpeed="10.55" duration="86.00" routeLength="752.50" waitingTime="0.00" waitingCount="0" stopTime="0.00" timeLoss="16.21" rerouteNo="0" devices="tripinfo_flow_70.17" vType="human" speedFactor="0.98" vaporized=""/>