<?xml version="1.0" encoding="UTF-8"?>

<!-- generated on Thu Jul 16 19:27:24 2020 by Eclipse SUMO Version v1_6_0+0474-c178882b35
<configuration xmlns:xsi="http://www.w3.org/2001/XMLSchema-instance" xsi:noNamespaceSchemaLocation="http://sumo.dlr.de/xsd/sumoConfiguration.xsd">

    <input>
        <net-file value="/usr/local/google/home/gilbertbahati/flow/flow/core/kernel/network/debug/cfg/grid-trail_20200716-1927221594927642.2082233.net.xml"/>
        <route-files value="/usr/local/google/home/gilbertbahati/flow/flow/core/kernel/network/debug/cfg/grid-trail_20200716-1927221594927642.2082233.rou.xml"/>
        <additional-files value="/usr/local/google/home/gilbertbahati/flow/flow/core/kernel/network/debug/cfg/grid-trail_20200716-1927221594927642.2082233.add.xml"/>
    </input>

    <output>
        <tripinfo-output value="~/flow/data/grid-trail_20200716-1927221594927642.2082233-emission.xml"/>
    </output>

    <time>
        <begin value="0"/>
        <step-length value="1"/>
    </time>

    <processing>
        <collision.check-junctions value="true"/>
        <time-to-teleport value="-1"/>
    </processing>

    <report>
        <no-step-log value="true"/>
    </report>

    <traci_server>
        <remote-port value="37921"/>
        <num-clients value="1"/>
    </traci_server>

    <random_number>
        <seed value="2598"/>
    </random_number>

    <gui_only>
        <gui-settings-file value="/usr/local/google/home/gilbertbahati/flow/flow/core/kernel/network/debug/cfg/grid-trail_20200716-1927221594927642.2082233.gui.cfg"/>
        <tracker-interval value="1"/>
    </gui_only>

</configuration>
-->

<tripinfos xmlns:xsi="http://www.w3.org/2001/XMLSchema-instance" xsi:noNamespaceSchemaLocation="http://sumo.dlr.de/xsd/tripinfo_file.xsd">
    <tripinfo id="flow_20.0" depart="1.00" departLane="bot0_0_0" departPos="5.10" departSpeed="5.00" departDelay="0.00" arrival="41.00" arrivalLane="bot0_1_0" arrivalPos="240.00" arrivalSpeed="12.88" duration="40.00" routeLength="493.70" waitingTime="0.00" waitingCount="0" stopTime="0.00" timeLoss="0.95" rerouteNo="0" devices="tripinfo_flow_20.0" vType="human" speedFactor="1.17" vaporized=""/>
    <tripinfo id="flow_30.0" depart="1.00" departLane="top0_1_0" departPos="5.10" departSpeed="5.00" departDelay="0.00" arrival="47.00" arrivalLane="top0_0_0" arrivalPos="240.00" arrivalSpeed="10.92" duration="46.00" routeLength="493.70" waitingTime="0.00" waitingCount="0" stopTime="0.00" timeLoss="0.61" rerouteNo="0" devices="tripinfo_flow_30.0" vType="human" speedFactor="0.99" vaporized=""/>
    <tripinfo id="flow_30.1" depart="4.00" departLane="top0_1_0" departPos="5.10" departSpeed="5.00" departDelay="0.43" arrival="51.00" arrivalLane="top0_0_0" arrivalPos="240.00" arrivalSpeed="11.16" duration="47.00" routeLength="493.70" waitingTime="0.00" waitingCount="0" stopTime="0.00" timeLoss="2.39" rerouteNo="0" devices="tripinfo_flow_30.1" vType="human" speedFactor="1.02" vaporized=""/>
    <tripinfo id="flow_30.2" depart="7.00" departLane="top0_1_0" departPos="5.10" departSpeed="5.00" departDelay="0.86" arrival="54.00" arrivalLane="top0_0_0" arrivalPos="240.00" arrivalSpeed="11.59" duration="47.00" routeLength="493.70" waitingTime="0.00" waitingCount="0" stopTime="0.00" timeLoss="3.96" rerouteNo="0" devices="tripinfo_flow_30.2" vType="human" speedFactor="1.06" vaporized=""/>
    <tripinfo id="flow_20.1" depart="4.00" departLane="bot0_0_0" departPos="5.10" departSpeed="5.00" departDelay="0.43" arrival="55.00" arrivalLane="bot0_1_0" arrivalPos="240.00" arrivalSpeed="9.82" duration="51.00" routeLength="493.70" waitingTime="0.00" waitingCount="0" stopTime="0.00" timeLoss="0.62" rerouteNo="0" devices="tripinfo_flow_20.1" vType="human" speedFactor="0.89" vaporized=""/>
    <tripinfo id="flow_20.2" depart="7.00" departLane="bot0_0_0" departPos="5.10" departSpeed="5.00" departDelay="0.86" arrival="58.00" arrivalLane="bot0_1_0" arrivalPos="240.00" arrivalSpeed="10.48" duration="51.00" routeLength="493.70" waitingTime="0.00" waitingCount="0" stopTime="0.00" timeLoss="3.79" rerouteNo="0" devices="tripinfo_flow_20.2" vType="human" speedFactor="0.95" vaporized=""/>
    <tripinfo id="flow_20.3" depart="9.00" departLane="bot0_0_0" departPos="5.10" departSpeed="5.00" departDelay="0.29" arrival="60.00" arrivalLane="bot0_1_0" arrivalPos="240.00" arrivalSpeed="11.80" duration="51.00" routeLength="493.70" waitingTime="0.00" waitingCount="0" stopTime="0.00" timeLoss="10.37" rerouteNo="0" devices="tripinfo_flow_20.3" vType="human" speedFactor="1.11" vaporized=""/>
    <tripinfo id="flow_30.3" depart="9.00" departLane="top0_1_0" departPos="5.10" departSpeed="5.00" departDelay="0.29" arrival="60.00" arrivalLane="top0_0_0" arrivalPos="240.00" arrivalSpeed="10.06" duration="51.00" routeLength="493.70" waitingTime="0.00" waitingCount="0" stopTime="0.00" timeLoss="1.85" rerouteNo="0" devices="tripinfo_flow_30.3" vType="human" speedFactor="0.91" vaporized=""/>
    <tripinfo id="flow_20.4" depart="12.00" departLane="bot0_0_0" departPos="5.10" departSpeed="5.00" departDelay="0.72" arrival="63.00" arrivalLane="bot0_1_0" arrivalPos="240.00" arrivalSpeed="11.22" duration="51.00" routeLength="493.70" waitingTime="0.00" waitingCount="0" stopTime="0.00" timeLoss="6.44" rerouteNo="0" devices="tripinfo_flow_20.4" vType="human" speedFactor="1.03" vaporized=""/>
    <tripinfo id="flow_30.4" depart="12.00" departLane="top0_1_0" departPos="5.10" departSpeed="5.00" departDelay="0.72" arrival="63.00" arrivalLane="top0_0_0" arrivalPos="240.00" arrivalSpeed="11.56" duration="51.00" routeLength="493.70" waitingTime="0.00" waitingCount="0" stopTime="0.00" timeLoss="7.72" rerouteNo="0" devices="tripinfo_flow_30.4" vType="human" speedFactor="1.06" vaporized=""/>
    <tripinfo id="flow_20.5" depart="14.00" departLane="bot0_0_0" departPos="5.10" departSpeed="5.00" departDelay="0.15" arrival="65.00" arrivalLane="bot0_1_0" arrivalPos="240.00" arrivalSpeed="11.36" duration="51.00" routeLength="493.70" waitingTime="0.00" waitingCount="0" stopTime="0.00" timeLoss="7.89" rerouteNo="0" devices="tripinfo_flow_20.5" vType="human" speedFactor="1.05" vaporized=""/>
    <tripinfo id="flow_20.6" depart="17.00" departLane="bot0_0_0" departPos="5.10" departSpeed="5.00" departDelay="0.57" arrival="67.00" arrivalLane="bot0_1_0" arrivalPos="240.00" arrivalSpeed="11.73" duration="50.00" routeLength="493.70" waitingTime="0.00" waitingCount="0" stopTime="0.00" timeLoss="8.72" rerouteNo="0" devices="tripinfo_flow_20.6" vType="human" speedFactor="1.10" vaporized=""/>
    <tripinfo id="flow_30.5" depart="14.00" departLane="top0_1_0" departPos="5.10" departSpeed="5.00" departDelay="0.15" arrival="68.00" arrivalLane="top0_0_0" arrivalPos="240.00" arrivalSpeed="9.74" duration="54.00" routeLength="493.70" waitingTime="0.00" waitingCount="0" stopTime="0.00" timeLoss="2.50" rerouteNo="0" devices="tripinfo_flow_30.5" vType="human" speedFactor="0.89" vaporized=""/>
    <tripinfo id="flow_30.6" depart="17.00" departLane="top0_1_0" departPos="5.10" departSpeed="5.00" departDelay="0.57" arrival="70.00" arrivalLane="top0_0_0" arrivalPos="240.00" arrivalSpeed="11.63" duration="53.00" routeLength="493.70" waitingTime="0.00" waitingCount="0" stopTime="0.00" timeLoss="11.50" rerouteNo="0" devices="tripinfo_flow_30.6" vType="human" speedFactor="1.10" vaporized=""/>
    <tripinfo id="flow_20.7" depart="19.00" departLane="bot0_0_0" departPos="5.10" departSpeed="5.00" departDelay="0.00" arrival="70.00" arrivalLane="bot0_1_0" arrivalPos="240.00" arrivalSpeed="11.32" duration="51.00" routeLength="493.70" waitingTime="0.00" waitingCount="0" stopTime="0.00" timeLoss="6.72" rerouteNo="0" devices="tripinfo_flow_20.7" vType="human" speedFactor="1.03" vaporized=""/>
    <tripinfo id="flow_30.7" depart="19.00" departLane="top0_1_0" departPos="5.10" departSpeed="5.00" departDelay="0.00" arrival="72.00" arrivalLane="top0_0_0" arrivalPos="240.00" arrivalSpeed="10.67" duration="53.00" routeLength="493.70" waitingTime="0.00" waitingCount="0" stopTime="0.00" timeLoss="7.01" rerouteNo="0" devices="tripinfo_flow_30.7" vType="human" speedFactor="0.98" vaporized=""/>
    <tripinfo id="flow_20.8" depart="22.00" departLane="bot0_0_0" departPos="5.10" departSpeed="5.00" departDelay="0.43" arrival="72.00" arrivalLane="bot0_1_0" arrivalPos="240.00" arrivalSpeed="11.23" duration="50.00" routeLength="493.70" waitingTime="0.00" waitingCount="0" stopTime="0.00" timeLoss="6.22" rerouteNo="0" devices="tripinfo_flow_20.8" vType="human" speedFactor="1.04" vaporized=""/>
    <tripinfo id="flow_20.9" depart="25.00" departLane="bot0_0_0" departPos="5.10" departSpeed="5.00" departDelay="0.86" arrival="74.00" arrivalLane="bot0_1_0" arrivalPos="240.00" arrivalSpeed="12.46" duration="49.00" routeLength="493.70" waitingTime="0.00" waitingCount="0" stopTime="0.00" timeLoss="10.77" rerouteNo="0" devices="tripinfo_flow_20.9" vType="human" speedFactor="1.19" vaporized=""/>
    <tripinfo id="flow_20.10" depart="27.00" departLane="bot0_0_0" departPos="5.10" departSpeed="5.00" departDelay="0.29" arrival="76.00" arrivalLane="bot0_1_0" arrivalPos="240.00" arrivalSpeed="12.09" duration="49.00" routeLength="493.70" waitingTime="0.00" waitingCount="0" stopTime="0.00" timeLoss="8.96" rerouteNo="0" devices="tripinfo_flow_20.10" vType="human" speedFactor="1.13" vaporized=""/>
    <tripinfo id="flow_30.8" depart="22.00" departLane="top0_1_0" departPos="5.10" departSpeed="5.00" departDelay="0.43" arrival="77.00" arrivalLane="top0_0_0" arrivalPos="240.00" arrivalSpeed="9.50" duration="55.00" routeLength="493.70" waitingTime="0.00" waitingCount="0" stopTime="0.00" timeLoss="2.40" rerouteNo="0" devices="tripinfo_flow_30.8" vType="human" speedFactor="0.86" vaporized=""/>
    <tripinfo id="flow_30.9" depart="25.00" departLane="top0_1_0" departPos="5.10" departSpeed="5.00" departDelay="0.86" arrival="81.00" arrivalLane="top0_0_0" arrivalPos="240.00" arrivalSpeed="9.52" duration="56.00" routeLength="493.70" waitingTime="0.00" waitingCount="0" stopTime="0.00" timeLoss="3.27" rerouteNo="0" devices="tripinfo_flow_30.9" vType="human" speedFactor="0.87" vaporized=""/>
    <tripinfo id="flow_30.10" depart="27.00" departLane="top0_1_0" departPos="5.10" departSpeed="5.00" departDelay="0.29" arrival="83.00" arrivalLane="top0_0_0" arrivalPos="240.00" arrivalSpeed="10.88" duration="56.00" routeLength="493.70" waitingTime="0.00" waitingCount="0" stopTime="0.00" timeLoss="11.10" rerouteNo="0" devices="tripinfo_flow_30.10" vType="human" speedFactor="1.02" vaporized=""/>
    <tripinfo id="flow_20.11" depart="30.00" departLane="bot0_0_0" departPos="5.10" departSpeed="5.00" departDelay="0.72" arrival="83.00" arrivalLane="bot0_1_0" arrivalPos="240.00" arrivalSpeed="9.59" duration="53.00" routeLength="493.70" waitingTime="0.00" waitingCount="0" stopTime="0.00" timeLoss="1.16" rerouteNo="0" devices="tripinfo_flow_20.11" vType="human" speedFactor="0.87" vaporized=""/>
    <tripinfo id="flow_20.12" depart="32.00" departLane="bot0_0_0" departPos="5.10" departSpeed="5.00" departDelay="0.15" arrival="86.00" arrivalLane="bot0_1_0" arrivalPos="240.00" arrivalSpeed="10.45" duration="54.00" routeLength="493.70" waitingTime="0.00" waitingCount="0" stopTime="0.00" timeLoss="6.17" rerouteNo="0" devices="tripinfo_flow_20.12" vType="human" speedFactor="0.95" vaporized=""/>
    <tripinfo id="flow_30.11" depart="30.00" departLane="top0_1_0" departPos="5.10" departSpeed="5.00" departDelay="0.72" arrival="89.00" arrivalLane="top0_0_0" arrivalPos="240.00" arrivalSpeed="8.72" duration="59.00" routeLength="493.70" waitingTime="0.00" waitingCount="0" stopTime="0.00" timeLoss="1.89" rerouteNo="0" devices="tripinfo_flow_30.11" vType="human" speedFactor="0.79" vaporized=""/>
    <tripinfo id="flow_20.13" depart="35.00" departLane="bot0_0_0" departPos="5.10" departSpeed="5.00" departDelay="0.58" arrival="89.00" arrivalLane="bot0_1_0" arrivalPos="240.00" arrivalSpeed="10.02" duration="54.00" routeLength="493.70" waitingTime="0.00" waitingCount="0" stopTime="0.00" timeLoss="4.27" rerouteNo="0" devices="tripinfo_flow_20.13" vType="human" speedFactor="0.91" vaporized=""/>
    <tripinfo id="flow_30.12" depart="32.00" departLane="top0_1_0" departPos="5.10" departSpeed="5.00" departDelay="0.15" arrival="91.00" arrivalLane="top0_0_0" arrivalPos="240.00" arrivalSpeed="10.65" duration="59.00" routeLength="493.70" waitingTime="0.00" waitingCount="0" stopTime="0.00" timeLoss="13.81" rerouteNo="0" devices="tripinfo_flow_30.12" vType="human" speedFactor="1.00" vaporized=""/>
    <tripinfo id="flow_20.14" depart="37.00" departLane="bot0_0_0" departPos="5.10" departSpeed="5.00" departDelay="0.01" arrival="91.00" arrivalLane="bot0_1_0" arrivalPos="240.00" arrivalSpeed="10.67" duration="54.00" routeLength="493.70" waitingTime="0.00" waitingCount="0" stopTime="0.00" timeLoss="8.29" rerouteNo="0" devices="tripinfo_flow_20.14" vType="human" speedFactor="0.99" vaporized=""/>
    <tripinfo id="flow_30.13" depart="35.00" departLane="top0_1_0" departPos="5.10" departSpeed="5.00" departDelay="0.58" arrival="93.00" arrivalLane="top0_0_0" arrivalPos="240.00" arrivalSpeed="11.46" duration="58.00" routeLength="493.70" waitingTime="0.00" waitingCount="0" stopTime="0.00" timeLoss="16.53" rerouteNo="0" devices="tripinfo_flow_30.13" vType="human" speedFactor="1.10" vaporized=""/>
    <tripinfo id="flow_20.15" depart="40.00" departLane="bot0_0_0" departPos="5.10" departSpeed="5.00" departDelay="0.44" arrival="94.00" arrivalLane="bot0_1_0" arrivalPos="240.00" arrivalSpeed="10.24" duration="54.00" routeLength="493.70" waitingTime="0.00" waitingCount="0" stopTime="0.00" timeLoss="5.56" rerouteNo="0" devices="tripinfo_flow_20.15" vType="human" speedFactor="0.93" vaporized=""/>
    <tripinfo id="flow_20.16" depart="43.00" departLane="bot0_0_0" departPos="5.10" departSpeed="5.00" departDelay="0.86" arrival="96.00" arrivalLane="bot0_1_0" arrivalPos="240.00" arrivalSpeed="10.89" duration="53.00" routeLength="493.70" waitingTime="0.00" waitingCount="0" stopTime="0.00" timeLoss="8.44" rerouteNo="0" devices="tripinfo_flow_20.16" vType="human" speedFactor="1.01" vaporized=""/>
    <tripinfo id="flow_30.14" depart="37.00" departLane="top0_1_0" departPos="5.10" departSpeed="5.00" departDelay="0.01" arrival="99.00" arrivalLane="top0_0_0" arrivalPos="240.00" arrivalSpeed="8.32" duration="62.00" routeLength="493.70" waitingTime="0.00" waitingCount="0" stopTime="0.00" timeLoss="2.27" rerouteNo="0" devices="tripinfo_flow_30.14" vType="human" speedFactor="0.76" vaporized=""/>
    <tripinfo id="flow_30.15" depart="40.00" departLane="top0_1_0" departPos="5.10" departSpeed="5.00" departDelay="0.44" arrival="101.00" arrivalLane="top0_0_0" arrivalPos="240.00" arrivalSpeed="11.15" duration="61.00" routeLength="493.70" waitingTime="0.00" waitingCount="0" stopTime="0.00" timeLoss="19.46" rerouteNo="0" devices="tripinfo_flow_30.15" vType="human" speedFactor="1.10" vaporized=""/>
    <tripinfo id="flow_30.16" depart="43.00" departLane="top0_1_0" departPos="5.10" departSpeed="5.00" departDelay="0.86" arrival="103.00" arrivalLane="top0_0_0" arrivalPos="240.00" arrivalSpeed="11.60" duration="60.00" routeLength="493.70" waitingTime="0.00" waitingCount="0" stopTime="0.00" timeLoss="19.55" rerouteNo="0" devices="tripinfo_flow_30.16" vType="human" speedFactor="1.13" vaporized=""/>
    <tripinfo id="flow_20.17" depart="45.00" departLane="bot0_0_0" departPos="5.10" departSpeed="5.00" departDelay="0.29" arrival="105.00" arrivalLane="bot0_1_0" arrivalPos="240.00" arrivalSpeed="8.56" duration="60.00" routeLength="493.70" waitingTime="0.00" waitingCount="0" stopTime="0.00" timeLoss="1.50" rerouteNo="0" devices="tripinfo_flow_20.17" vType="human" speedFactor="0.78" vaporized=""/>
    <tripinfo id="flow_30.17" depart="45.00" departLane="top0_1_0" departPos="5.10" departSpeed="5.00" departDelay="0.29" arrival="105.00" arrivalLane="top0_0_0" arrivalPos="240.00" arrivalSpeed="10.78" duration="60.00" routeLength="493.70" waitingTime="0.00" waitingCount="0" stopTime="0.00" timeLoss="14.93" rerouteNo="0" devices="tripinfo_flow_30.17" vType="human" speedFactor="1.01" vaporized=""/>
    <tripinfo id="flow_20.18" depart="48.00" departLane="bot0_0_0" departPos="5.10" departSpeed="5.00" departDelay="0.72" arrival="106.00" arrivalLane="bot0_1_0" arrivalPos="240.00" arrivalSpeed="10.44" duration="58.00" routeLength="493.70" waitingTime="0.00" waitingCount="0" stopTime="0.00" timeLoss="19.70" rerouteNo="0" devices="tripinfo_flow_20.18" vType="human" speedFactor="1.17" vaporized=""/>
    <tripinfo id="flow_30.18" depart="48.00" departLane="top0_1_0" departPos="5.10" departSpeed="5.00" departDelay="0.72" arrival="107.00" arrivalLane="top0_0_0" arrivalPos="240.00" arrivalSpeed="11.58" duration="59.00" routeLength="493.70" waitingTime="0.00" waitingCount="0" stopTime="0.00" timeLoss="17.97" rerouteNo="0" devices="tripinfo_flow_30.18" vType="human" speedFactor="1.11" vaporized=""/>
    <tripinfo id="flow_20.19" depart="50.00" departLane="bot0_0_0" departPos="5.10" departSpeed="5.00" departDelay="0.15" arrival="108.00" arrivalLane="bot0_1_0" arrivalPos="240.00" arrivalSpeed="11.26" duration="58.00" routeLength="493.70" waitingTime="0.00" waitingCount="0" stopTime="0.00" timeLoss="16.99" rerouteNo="0" devices="tripinfo_flow_20.19" vType="human" speedFactor="1.10" vaporized=""/>
    <tripinfo id="flow_30.19" depart="50.00" departLane="top0_1_0" departPos="5.10" departSpeed="5.00" departDelay="0.15" arrival="109.00" arrivalLane="top0_0_0" arrivalPos="240.00" arrivalSpeed="12.19" duration="59.00" routeLength="493.70" waitingTime="0.00" waitingCount="0" stopTime="0.00" timeLoss="20.49" rerouteNo="0" devices="tripinfo_flow_30.19" vType="human" speedFactor="1.19" vaporized=""/>
    <tripinfo id="flow_20.20" depart="53.00" departLane="bot0_0_0" departPos="5.10" departSpeed="5.00" departDelay="0.58" arrival="110.00" arrivalLane="bot0_1_0" arrivalPos="240.00" arrivalSpeed="11.28" duration="57.00" routeLength="493.70" waitingTime="0.00" waitingCount="0" stopTime="0.00" timeLoss="15.04" rerouteNo="0" devices="tripinfo_flow_20.20" vType="human" speedFactor="1.07" vaporized=""/>
    <tripinfo id="flow_30.20" depart="53.00" departLane="top0_1_0" departPos="5.10" departSpeed="5.00" departDelay="0.58" arrival="111.00" arrivalLane="top0_0_0" arrivalPos="240.00" arrivalSpeed="10.52" duration="58.00" routeLength="493.70" waitingTime="0.00" waitingCount="0" stopTime="0.00" timeLoss="11.50" rerouteNo="0" devices="tripinfo_flow_30.20" vType="human" speedFactor="0.97" vaporized=""/>
    <tripinfo id="flow_20.21" depart="55.00" departLane="bot0_0_0" departPos="5.10" departSpeed="5.00" departDelay="0.01" arrival="112.00" arrivalLane="bot0_1_0" arrivalPos="240.00" arrivalSpeed="11.16" duration="57.00" routeLength="493.70" waitingTime="0.00" waitingCount="0" stopTime="0.00" timeLoss="14.22" rerouteNo="0" devices="tripinfo_flow_20.21" vType="human" speedFactor="1.05" vaporized=""/>
    <tripinfo id="flow_30.21" depart="55.00" departLane="top0_1_0" departPos="5.10" departSpeed="5.00" departDelay="0.01" arrival="114.00" arrivalLane="top0_0_0" arrivalPos="240.00" arrivalSpeed="10.03" duration="59.00" routeLength="493.70" waitingTime="0.00" waitingCount="0" stopTime="0.00" timeLoss="9.06" rerouteNo="0" devices="tripinfo_flow_30.21" vType="human" speedFactor="0.92" vaporized=""/>
    <tripinfo id="flow_20.22" depart="58.00" departLane="bot0_0_0" departPos="5.10" departSpeed="5.00" departDelay="0.44" arrival="115.00" arrivalLane="bot0_1_0" arrivalPos="240.00" arrivalSpeed="10.50" duration="57.00" routeLength="493.70" waitingTime="0.00" waitingCount="0" stopTime="0.00" timeLoss="9.48" rerouteNo="0" devices="tripinfo_flow_20.22" vType="human" speedFactor="0.96" vaporized=""/>
    <tripinfo id="flow_20.23" depart="61.00" departLane="bot0_0_0" departPos="5.10" departSpeed="5.00" departDelay="0.87" arrival="117.00" arrivalLane="bot0_1_0" arrivalPos="240.00" arrivalSpeed="11.62" duration="56.00" routeLength="493.70" waitingTime="0.00" waitingCount="0" stopTime="0.00" timeLoss="14.53" rerouteNo="0" devices="tripinfo_flow_20.23" vType="human" speedFactor="1.10" vaporized=""/>
    <tripinfo id="flow_20.24" depart="63.00" departLane="bot0_0_0" departPos="5.10" departSpeed="5.00" departDelay="0.30" arrival="119.00" arrivalLane="bot0_1_0" arrivalPos="240.00" arrivalSpeed="10.63" duration="56.00" routeLength="493.70" waitingTime="0.00" waitingCount="0" stopTime="0.00" timeLoss="9.91" rerouteNo="0" devices="tripinfo_flow_20.24" vType="human" speedFactor="0.98" vaporized=""/>
    <tripinfo id="flow_20.25" depart="66.00" departLane="bot0_0_0" departPos="5.10" departSpeed="5.00" departDelay="0.73" arrival="121.00" arrivalLane="bot0_1_0" arrivalPos="240.00" arrivalSpeed="10.61" duration="55.00" routeLength="493.70" waitingTime="0.00" waitingCount="0" stopTime="0.00" timeLoss="9.20" rerouteNo="0" devices="tripinfo_flow_20.25" vType="human" speedFactor="0.98" vaporized=""/>
    <tripinfo id="flow_20.26" depart="68.00" departLane="bot0_0_0" departPos="5.10" departSpeed="5.00" departDelay="0.15" arrival="123.00" arrivalLane="bot0_1_0" arrivalPos="240.00" arrivalSpeed="11.50" duration="55.00" routeLength="493.70" waitingTime="0.00" waitingCount="0" stopTime="0.00" timeLoss="13.70" rerouteNo="0" devices="tripinfo_flow_20.26" vType="human" speedFactor="1.09" vaporized=""/>
    <tripinfo id="flow_20.27" depart="71.00" departLane="bot0_0_0" departPos="5.10" departSpeed="5.00" departDelay="0.58" arrival="125.00" arrivalLane="bot0_1_0" arrivalPos="240.00" arrivalSpeed="11.27" duration="54.00" routeLength="493.70" waitingTime="0.00" waitingCount="0" stopTime="0.00" timeLoss="11.43" rerouteNo="0" devices="tripinfo_flow_20.27" vType="human" speedFactor="1.06" vaporized=""/>
    <tripinfo id="flow_30.22" depart="58.00" departLane="top0_1_0" departPos="5.10" departSpeed="5.00" departDelay="0.44" arrival="126.00" arrivalLane="top0_0_0" arrivalPos="240.00" arrivalSpeed="7.40" duration="68.00" routeLength="493.70" waitingTime="0.00" waitingCount="0" stopTime="0.00" timeLoss="0.67" rerouteNo="0" devices="tripinfo_flow_30.22" vType="human" speedFactor="0.67" vaporized=""/>
    <tripinfo id="flow_30.23" depart="61.00" departLane="top0_1_0" departPos="5.10" departSpeed="5.00" departDelay="0.87" arrival="128.00" arrivalLane="top0_0_0" arrivalPos="240.00" arrivalSpeed="11.08" duration="67.00" routeLength="493.70" waitingTime="0.00" waitingCount="0" stopTime="0.00" timeLoss="27.62" rerouteNo="0" devices="tripinfo_flow_30.23" vType="human" speedFactor="1.16" vaporized=""/>
    <tripinfo id="flow_20.28" depart="73.00" departLane="bot0_0_0" departPos="5.10" departSpeed="5.00" departDelay="0.01" arrival="128.00" arrivalLane="bot0_1_0" arrivalPos="240.00" arrivalSpeed="10.78" duration="55.00" routeLength="493.70" waitingTime="0.00" waitingCount="0" stopTime="0.00" timeLoss="8.59" rerouteNo="0" devices="tripinfo_flow_20.28" vType="human" speedFactor="0.99" vaporized=""/>
    <tripinfo id="flow_30.24" depart="63.00" departLane="top0_1_0" departPos="5.10" departSpeed="5.00" departDelay="0.30" arrival="130.00" arrivalLane="top0_0_0" arrivalPos="240.00" arrivalSpeed="10.17" duration="67.00" routeLength="493.70" waitingTime="0.00" waitingCount="0" stopTime="0.00" timeLoss="19.45" rerouteNo="0" devices="tripinfo_flow_30.24" vType="human" speedFactor="0.96" vaporized=""/>
    <tripinfo id="flow_20.29" depart="76.00" departLane="bot0_0_0" departPos="5.10" departSpeed="5.00" departDelay="0.44" arrival="130.00" arrivalLane="bot0_1_0" arrivalPos="240.00" arrivalSpeed="11.93" duration="54.00" routeLength="493.70" waitingTime="0.00" waitingCount="0" stopTime="0.00" timeLoss="13.58" rerouteNo="0" devices="tripinfo_flow_20.29" vType="human" speedFactor="1.14" vaporized=""/>
    <tripinfo id="flow_30.25" depart="66.00" departLane="top0_1_0" departPos="5.10" departSpeed="5.00" departDelay="0.73" arrival="132.00" arrivalLane="top0_0_0" arrivalPos="240.00" arrivalSpeed="9.97" duration="66.00" routeLength="493.70" waitingTime="0.00" waitingCount="0" stopTime="0.00" timeLoss="17.18" rerouteNo="0" devices="tripinfo_flow_30.25" vType="human" speedFactor="0.93" vaporized=""/>
    <tripinfo id="flow_20.30" depart="79.00" departLane="bot0_0_0" departPos="5.10" departSpeed="5.00" departDelay="0.87" arrival="132.00" arrivalLane="bot0_1_0" arrivalPos="240.00" arrivalSpeed="11.66" duration="53.00" routeLength="493.70" waitingTime="0.00" waitingCount="0" stopTime="0.00" timeLoss="11.28" rerouteNo="0" devices="tripinfo_flow_20.30" vType="human" speedFactor="1.10" vaporized=""/>
    <tripinfo id="flow_30.26" depart="68.00" departLane="top0_1_0" departPos="5.10" departSpeed="5.00" departDelay="0.15" arrival="134.00" arrivalLane="top0_0_0" arrivalPos="240.00" arrivalSpeed="10.79" duration="66.00" routeLength="493.70" waitingTime="0.00" waitingCount="0" stopTime="0.00" timeLoss="21.81" rerouteNo="0" devices="tripinfo_flow_30.26" vType="human" speedFactor="1.03" vaporized=""/>
    <tripinfo id="flow_20.31" depart="81.00" departLane="bot0_0_0" departPos="5.10" departSpeed="5.00" departDelay="0.30" arrival="134.00" arrivalLane="bot0_1_0" arrivalPos="240.00" arrivalSpeed="9.96" duration="53.00" routeLength="493.70" waitingTime="0.00" waitingCount="0" stopTime="0.00" timeLoss="3.76" rerouteNo="0" devices="tripinfo_flow_20.31" vType="human" speedFactor="0.91" vaporized=""/>
    <tripinfo id="flow_30.27" depart="71.00" departLane="top0_1_0" departPos="5.10" departSpeed="5.00" departDelay="0.58" arrival="136.00" arrivalLane="top0_0_0" arrivalPos="240.00" arrivalSpeed="11.45" duration="65.00" routeLength="493.70" waitingTime="0.00" waitingCount="0" stopTime="0.00" timeLoss="23.94" rerouteNo="0" devices="tripinfo_flow_30.27" vType="human" speedFactor="1.11" vaporized=""/>
    <tripinfo id="flow_30.28" depart="73.00" departLane="top0_1_0" departPos="5.10" departSpeed="5.00" departDelay="0.01" arrival="138.00" arrivalLane="top0_0_0" arrivalPos="240.00" arrivalSpeed="9.79" duration="65.00" routeLength="493.70" waitingTime="0.00" waitingCount="0" stopTime="0.00" timeLoss="14.97" rerouteNo="0" devices="tripinfo_flow_30.28" vType="human" speedFactor="0.90" vaporized=""/>
    <tripinfo id="flow_20.32" depart="84.00" departLane="bot0_0_0" departPos="5.10" departSpeed="5.00" departDelay="0.73" arrival="138.00" arrivalLane="bot0_1_0" arrivalPos="240.00" arrivalSpeed="9.94" duration="54.00" routeLength="493.70" waitingTime="0.00" waitingCount="0" stopTime="0.00" timeLoss="3.39" rerouteNo="0" devices="tripinfo_flow_20.32" vType="human" speedFactor="0.90" vaporized=""/>
    <tripinfo id="flow_30.29" depart="76.00" departLane="top0_1_0" departPos="5.10" departSpeed="5.00" departDelay="0.44" arrival="140.00" arrivalLane="top0_0_0" arrivalPos="240.00" arrivalSpeed="10.31" duration="64.00" routeLength="493.70" waitingTime="0.00" waitingCount="0" stopTime="0.00" timeLoss="17.29" rerouteNo="0" devices="tripinfo_flow_30.29" vType="human" speedFactor="0.97" vaporized=""/>
    <tripinfo id="flow_20.33" depart="86.00" departLane="bot0_0_0" departPos="5.10" departSpeed="5.00" departDelay="0.16" arrival="140.00" arrivalLane="bot0_1_0" arrivalPos="240.00" arrivalSpeed="10.15" duration="54.00" routeLength="493.70" waitingTime="0.00" waitingCount="0" stopTime="0.00" timeLoss="5.58" rerouteNo="0" devices="tripinfo_flow_20.33" vType="human" speedFactor="0.93" vaporized=""/>
    <tripinfo id="flow_20.34" depart="89.00" departLane="bot0_0_0" departPos="5.10" departSpeed="5.00" departDelay="0.59" arrival="143.00" arrivalLane="bot0_1_0" arrivalPos="240.00" arrivalSpeed="10.94" duration="54.00" routeLength="493.70" waitingTime="0.00" waitingCount="0" stopTime="0.00" timeLoss="8.25" rerouteNo="0" devices="tripinfo_flow_20.34" vType="human" speedFactor="1.00" vaporized=""/>
    <tripinfo id="flow_30.30" depart="79.00" departLane="top0_1_0" departPos="5.10" departSpeed="5.00" departDelay="0.87" arrival="144.00" arrivalLane="top0_0_0" arrivalPos="240.00" arrivalSpeed="8.26" duration="65.00" routeLength="493.70" waitingTime="0.00" waitingCount="0" stopTime="0.00" timeLoss="4.40" rerouteNo="0" devices="tripinfo_flow_30.30" vType="human" speedFactor="0.75" vaporized=""/>
    <tripinfo id="human_0" depart="1.00" departLane="left1_0_0" departPos="6.00" departSpeed="0.00" departDelay="0.00" arrival="145.00" arrivalLane="left0_0_0" arrivalPos="240.00" arrivalSpeed="10.81" duration="144.00" routeLength="492.80" waitingTime="88.00" waitingCount="1" stopTime="0.00" timeLoss="98.29" rerouteNo="0" devices="tripinfo_human_0" vType="human" speedFactor="0.98" vaporized=""/>
    <tripinfo id="flow_30.31" depart="81.00" departLane="top0_1_0" departPos="5.10" departSpeed="5.00" departDelay="0.30" arrival="146.00" arrivalLane="top0_0_0" arrivalPos="240.00" arrivalSpeed="10.58" duration="65.00" routeLength="493.70" waitingTime="0.00" waitingCount="0" stopTime="0.00" timeLoss="19.91" rerouteNo="0" devices="tripinfo_flow_30.31" vType="human" speedFactor="1.01" vaporized=""/>
    <tripinfo id="flow_30.32" depart="84.00" departLane="top0_1_0" departPos="5.10" departSpeed="5.00" departDelay="0.73" arrival="148.00" arrivalLane="top0_0_0" arrivalPos="240.00" arrivalSpeed="10.60" duration="64.00" routeLength="493.70" waitingTime="0.00" waitingCount="0" stopTime="0.00" timeLoss="18.37" rerouteNo="0" devices="tripinfo_flow_30.32" vType="human" speedFactor="1.00" vaporized=""/>
    <tripinfo id="flow_00.0" depart="4.00" departLane="left1_0_0" departPos="5.10" departSpeed="5.00" departDelay="3.00" arrival="149.00" arrivalLane="left0_0_0" arrivalPos="240.00" arrivalSpeed="10.81" duration="145.00" routeLength="493.70" waitingTime="87.00" waitingCount="1" stopTime="0.00" timeLoss="98.75" rerouteNo="0" devices="tripinfo_flow_00.0" vType="human" speedFactor="0.98" vaporized=""/>