<?xml version="1.0" encoding="UTF-8"?>

<!-- generated on Wed 15 Jul 2020 06:18:38 PM UTC by Eclipse SUMO GUI Version v1_6_0+0474-c178882b35
<configuration xmlns:xsi="http://www.w3.org/2001/XMLSchema-instance" xsi:noNamespaceSchemaLocation="http://sumo.dlr.de/xsd/sumoConfiguration.xsd">

    <input>
        <net-file value="/usr/local/google/home/gilbertbahati/flow/flow/core/kernel/network/debug/cfg/grid-trail_20200715-1818361594837116.139383.net.xml"/>
        <route-files value="/usr/local/google/home/gilbertbahati/flow/flow/core/kernel/network/debug/cfg/grid-trail_20200715-1818361594837116.139383.rou.xml"/>
        <additional-files value="/usr/local/google/home/gilbertbahati/flow/flow/core/kernel/network/debug/cfg/grid-trail_20200715-1818361594837116.139383.add.xml"/>
    </input>

    <output>
        <tripinfo-output value="~/flow/data/grid-trail_20200715-1818361594837116.139383-emission.xml"/>
    </output>

    <time>
        <begin value="0"/>
        <step-length value="1"/>
    </time>

    <processing>
        <collision.check-junctions value="true"/>
        <time-to-teleport value="-1"/>
    </processing>

    <report>
        <no-step-log value="true"/>
    </report>

    <traci_server>
        <remote-port value="59073"/>
        <num-clients value="1"/>
    </traci_server>

    <gui_only>
        <gui-settings-file value="/usr/local/google/home/gilbertbahati/flow/flow/core/kernel/network/debug/cfg/grid-trail_20200715-1818361594837116.139383.gui.cfg"/>
        <tracker-interval value="1"/>
    </gui_only>

</configuration>
-->

<tripinfos xmlns:xsi="http://www.w3.org/2001/XMLSchema-instance" xsi:noNamespaceSchemaLocation="http://sumo.dlr.de/xsd/tripinfo_file.xsd">
    <tripinfo id="human_0" depart="1.00" departLane="left1_0_0" departPos="6.00" departSpeed="0.00" departDelay="0.00" arrival="46.00" arrivalLane="left0_0_0" arrivalPos="240.00" arrivalSpeed="11.66" duration="45.00" routeLength="492.80" waitingTime="0.00" waitingCount="0" stopTime="0.00" timeLoss="2.01" rerouteNo="0" devices="tripinfo_human_0" vType="human" speedFactor="1.06" vaporized=""/>
    <tripinfo id="flow_00.0" depart="4.00" departLane="left1_0_0" departPos="5.10" departSpeed="5.00" departDelay="3.00" arrival="50.00" arrivalLane="left0_0_0" arrivalPos="240.00" arrivalSpeed="11.65" duration="46.00" routeLength="493.70" waitingTime="0.00" waitingCount="0" stopTime="0.00" timeLoss="2.94" rerouteNo="0" devices="tripinfo_flow_00.0" vType="human" speedFactor="1.06" vaporized=""/>
    <tripinfo id="flow_10.0" depart="1.00" departLane="right0_0_0" departPos="5.10" departSpeed="5.00" departDelay="0.00" arrival="50.00" arrivalLane="right1_0_0" arrivalPos="240.00" arrivalSpeed="10.32" duration="49.00" routeLength="493.70" waitingTime="0.00" waitingCount="0" stopTime="0.00" timeLoss="0.50" rerouteNo="0" devices="tripinfo_flow_10.0" vType="human" speedFactor="0.94" vaporized=""/>
    <tripinfo id="flow_30.0" depart="1.00" departLane="top0_1_0" departPos="5.10" departSpeed="5.00" departDelay="0.00" arrival="60.00" arrivalLane="top0_0_0" arrivalPos="240.00" arrivalSpeed="11.91" duration="59.00" routeLength="493.70" waitingTime="8.00" waitingCount="1" stopTime="0.00" timeLoss="17.43" rerouteNo="0" devices="tripinfo_flow_30.0" vType="human" speedFactor="1.08" vaporized=""/>
    <tripinfo id="flow_20.0" depart="1.00" departLane="bot0_0_0" departPos="5.10" departSpeed="5.00" departDelay="0.00" arrival="62.00" arrivalLane="bot0_1_0" arrivalPos="240.00" arrivalSpeed="11.11" duration="61.00" routeLength="493.70" waitingTime="7.00" waitingCount="1" stopTime="0.00" timeLoss="15.85" rerouteNo="0" devices="tripinfo_flow_20.0" vType="human" speedFactor="1.01" vaporized=""/>
    <tripinfo id="flow_20.1" depart="7.00" departLane="bot0_0_0" departPos="5.10" departSpeed="5.00" departDelay="0.00" arrival="65.00" arrivalLane="bot0_1_0" arrivalPos="240.00" arrivalSpeed="11.31" duration="58.00" routeLength="493.70" waitingTime="3.00" waitingCount="1" stopTime="0.00" timeLoss="13.96" rerouteNo="0" devices="tripinfo_flow_20.1" vType="human" speedFactor="1.03" vaporized=""/>
    <tripinfo id="flow_20.2" depart="13.00" departLane="bot0_0_0" departPos="5.10" departSpeed="5.00" departDelay="0.00" arrival="68.00" arrivalLane="bot0_1_0" arrivalPos="240.00" arrivalSpeed="11.46" duration="55.00" routeLength="493.70" waitingTime="0.00" waitingCount="0" stopTime="0.00" timeLoss="11.36" rerouteNo="0" devices="tripinfo_flow_20.2" vType="human" speedFactor="1.05" vaporized=""/>
    <tripinfo id="flow_30.1" depart="7.00" departLane="top0_1_0" departPos="5.10" departSpeed="5.00" departDelay="0.00" arrival="69.00" arrivalLane="top0_0_0" arrivalPos="240.00" arrivalSpeed="9.14" duration="62.00" routeLength="493.70" waitingTime="0.00" waitingCount="0" stopTime="0.00" timeLoss="7.59" rerouteNo="0" devices="tripinfo_flow_30.1" vType="human" speedFactor="0.83" vaporized=""/>
    <tripinfo id="flow_30.2" depart="13.00" departLane="top0_1_0" departPos="5.10" departSpeed="5.00" departDelay="0.00" arrival="72.00" arrivalLane="top0_0_0" arrivalPos="240.00" arrivalSpeed="9.73" duration="59.00" routeLength="493.70" waitingTime="0.00" waitingCount="0" stopTime="0.00" timeLoss="7.79" rerouteNo="0" devices="tripinfo_flow_30.2" vType="human" speedFactor="0.89" vaporized=""/>
    <tripinfo id="flow_20.3" depart="19.00" departLane="bot0_0_0" departPos="5.10" departSpeed="5.00" departDelay="0.00" arrival="72.00" arrivalLane="bot0_1_0" arrivalPos="240.00" arrivalSpeed="10.31" duration="53.00" routeLength="493.70" waitingTime="0.00" waitingCount="0" stopTime="0.00" timeLoss="4.34" rerouteNo="0" devices="tripinfo_flow_20.3" vType="human" speedFactor="0.94" vaporized=""/>
    <tripinfo id="flow_20.4" depart="25.00" departLane="bot0_0_0" departPos="5.10" departSpeed="5.00" departDelay="0.00" arrival="74.00" arrivalLane="bot0_1_0" arrivalPos="240.00" arrivalSpeed="11.29" duration="49.00" routeLength="493.70" waitingTime="0.00" waitingCount="0" stopTime="0.00" timeLoss="5.61" rerouteNo="0" devices="tripinfo_flow_20.4" vType="human" speedFactor="1.05" vaporized=""/>
    <tripinfo id="flow_30.3" depart="19.00" departLane="top0_1_0" departPos="5.10" departSpeed="5.00" departDelay="0.00" arrival="75.00" arrivalLane="top0_0_0" arrivalPos="240.00" arrivalSpeed="9.41" duration="56.00" routeLength="493.70" waitingTime="0.00" waitingCount="0" stopTime="0.00" timeLoss="3.34" rerouteNo="0" devices="tripinfo_flow_30.3" vType="human" speedFactor="0.86" vaporized=""/>
    <tripinfo id="flow_30.4" depart="25.00" departLane="top0_1_0" departPos="5.10" departSpeed="5.00" departDelay="0.00" arrival="77.00" arrivalLane="top0_0_0" arrivalPos="240.00" arrivalSpeed="11.63" duration="52.00" routeLength="493.70" waitingTime="0.00" waitingCount="0" stopTime="0.00" timeLoss="11.56" rerouteNo="0" devices="tripinfo_flow_30.4" vType="human" speedFactor="1.12" vaporized=""/>
    <tripinfo id="flow_20.5" depart="31.00" departLane="bot0_0_0" departPos="5.10" departSpeed="5.00" departDelay="0.00" arrival="78.00" arrivalLane="bot0_1_0" arrivalPos="240.00" arrivalSpeed="10.90" duration="47.00" routeLength="493.70" waitingTime="0.00" waitingCount="0" stopTime="0.00" timeLoss="1.37" rerouteNo="0" devices="tripinfo_flow_20.5" vType="human" speedFactor="0.99" vaporized=""/>
    <tripinfo id="flow_30.5" depart="31.00" departLane="top0_1_0" departPos="5.10" departSpeed="5.00" departDelay="0.00" arrival="81.00" arrivalLane="top0_0_0" arrivalPos="240.00" arrivalSpeed="10.19" duration="50.00" routeLength="493.70" waitingTime="0.00" waitingCount="0" stopTime="0.00" timeLoss="1.25" rerouteNo="0" devices="tripinfo_flow_30.5" vType="human" speedFactor="0.93" vaporized=""/>
    <tripinfo id="flow_30.6" depart="37.00" departLane="top0_1_0" departPos="5.10" departSpeed="5.00" departDelay="0.00" arrival="86.00" arrivalLane="top0_0_0" arrivalPos="240.00" arrivalSpeed="10.35" duration="49.00" routeLength="493.70" waitingTime="0.00" waitingCount="0" stopTime="0.00" timeLoss="1.17" rerouteNo="0" devices="tripinfo_flow_30.6" vType="human" speedFactor="0.94" vaporized=""/>
    <tripinfo id="flow_20.6" depart="37.00" departLane="bot0_0_0" departPos="5.10" departSpeed="5.00" departDelay="0.00" arrival="89.00" arrivalLane="bot0_1_0" arrivalPos="240.00" arrivalSpeed="9.66" duration="52.00" routeLength="493.70" waitingTime="0.00" waitingCount="0" stopTime="0.00" timeLoss="0.60" rerouteNo="0" devices="tripinfo_flow_20.6" vType="human" speedFactor="0.88" vaporized=""/>
    <tripinfo id="flow_30.7" depart="43.00" departLane="top0_1_0" departPos="5.10" departSpeed="5.00" departDelay="0.00" arrival="90.00" arrivalLane="top0_0_0" arrivalPos="240.00" arrivalSpeed="11.10" duration="47.00" routeLength="493.70" waitingTime="0.00" waitingCount="0" stopTime="0.00" timeLoss="1.84" rerouteNo="0" devices="tripinfo_flow_30.7" vType="human" speedFactor="1.01" vaporized=""/>
    <tripinfo id="flow_20.7" depart="43.00" departLane="bot0_0_0" departPos="5.10" departSpeed="5.00" departDelay="0.00" arrival="91.00" arrivalLane="bot0_1_0" arrivalPos="240.00" arrivalSpeed="10.98" duration="48.00" routeLength="493.70" waitingTime="0.00" waitingCount="0" stopTime="0.00" timeLoss="3.87" rerouteNo="0" devices="tripinfo_flow_20.7" vType="human" speedFactor="1.02" vaporized=""/>
    <tripinfo id="flow_00.1" depart="21.00" departLane="left1_0_0" departPos="5.10" departSpeed="5.00" departDelay="0.00" arrival="97.00" arrivalLane="left0_0_0" arrivalPos="240.00" arrivalSpeed="12.00" duration="76.00" routeLength="493.70" waitingTime="25.00" waitingCount="1" stopTime="0.00" timeLoss="34.59" rerouteNo="0" devices="tripinfo_flow_00.1" vType="human" speedFactor="1.09" vaporized=""/>
    <tripinfo id="flow_10.1" depart="21.00" departLane="right0_0_0" departPos="5.10" departSpeed="5.00" departDelay="0.00" arrival="98.00" arrivalLane="right1_0_0" arrivalPos="240.00" arrivalSpeed="11.29" duration="77.00" routeLength="493.70" waitingTime="24.00" waitingCount="1" stopTime="0.00" timeLoss="33.22" rerouteNo="0" devices="tripinfo_flow_10.1" vType="human" speedFactor="1.03" vaporized=""/>
    <tripinfo id="flow_10.2" depart="41.00" departLane="right0_0_0" departPos="5.10" departSpeed="5.00" departDelay="0.00" arrival="101.00" arrivalLane="right1_0_0" arrivalPos="240.00" arrivalSpeed="12.63" duration="60.00" routeLength="493.70" waitingTime="8.00" waitingCount="1" stopTime="0.00" timeLoss="20.43" rerouteNo="0" devices="tripinfo_flow_10.2" vType="human" speedFactor="1.16" vaporized=""/>
    <tripinfo id="flow_00.2" depart="41.00" departLane="left1_0_0" departPos="5.10" departSpeed="5.00" departDelay="0.00" arrival="103.00" arrivalLane="left0_0_0" arrivalPos="240.00" arrivalSpeed="10.30" duration="62.00" routeLength="493.70" waitingTime="4.00" waitingCount="1" stopTime="0.00" timeLoss="13.86" rerouteNo="0" devices="tripinfo_flow_00.2" vType="human" speedFactor="0.94" vaporized=""/>
    <tripinfo id="flow_10.3" depart="61.00" departLane="right0_0_0" departPos="5.10" departSpeed="5.00" departDelay="0.00" arrival="110.00" arrivalLane="right1_0_0" arrivalPos="240.00" arrivalSpeed="10.44" duration="49.00" routeLength="493.70" waitingTime="0.00" waitingCount="0" stopTime="0.00" timeLoss="0.84" rerouteNo="0" devices="tripinfo_flow_10.3" vType="human" speedFactor="0.95" vaporized=""/>
    <tripinfo id="flow_00.3" depart="61.00" departLane="left1_0_0" departPos="5.10" departSpeed="5.00" departDelay="0.00" arrival="111.00" arrivalLane="left0_0_0" arrivalPos="240.00" arrivalSpeed="10.09" duration="50.00" routeLength="493.70" waitingTime="0.00" waitingCount="0" stopTime="0.00" timeLoss="0.80" rerouteNo="0" devices="tripinfo_flow_00.3" vType="human" speedFactor="0.92" vaporized=""/>
    <tripinfo id="flow_10.4" depart="81.00" departLane="right0_0_0" departPos="5.10" departSpeed="5.00" departDelay="0.00" arrival="121.00" arrivalLane="right1_0_0" arrivalPos="240.00" arrivalSpeed="12.98" duration="40.00" routeLength="493.70" waitingTime="0.00" waitingCount="0" stopTime="0.00" timeLoss="1.02" rerouteNo="0" devices="tripinfo_flow_10.4" vType="human" speedFactor="1.18" vaporized=""/>
    <tripinfo id="flow_00.4" depart="81.00" departLane="left1_0_0" departPos="5.10" departSpeed="5.00" departDelay="0.00" arrival="128.00" arrivalLane="left0_0_0" arrivalPos="240.00" arrivalSpeed="10.71" duration="47.00" routeLength="493.70" waitingTime="0.00" waitingCount="0" stopTime="0.00" timeLoss="0.60" rerouteNo="0" devices="tripinfo_flow_00.4" vType="human" speedFactor="0.97" vaporized=""/>
    <tripinfo id="flow_20.8" depart="49.00" departLane="bot0_0_0" departPos="5.10" departSpeed="5.00" departDelay="0.00" arrival="137.00" arrivalLane="bot0_1_0" arrivalPos="240.00" arrivalSpeed="10.73" duration="88.00" routeLength="493.70" waitingTime="32.00" waitingCount="1" stopTime="0.00" timeLoss="41.00" rerouteNo="0" devices="tripinfo_flow_20.8" vType="human" speedFactor="0.98" vaporized=""/>
    <tripinfo id="flow_30.8" depart="49.00" departLane="top0_1_0" departPos="5.10" departSpeed="5.00" departDelay="0.00" arrival="139.00" arrivalLane="top0_0_0" arrivalPos="240.00" arrivalSpeed="9.79" duration="90.00" routeLength="493.70" waitingTime="31.00" waitingCount="1" stopTime="0.00" timeLoss="38.71" rerouteNo="0" devices="tripinfo_flow_30.8" vType="human" speedFactor="0.89" vaporized=""/>
    <tripinfo id="flow_20.9" depart="55.00" departLane="bot0_0_0" departPos="5.10" departSpeed="5.00" departDelay="0.00" arrival="143.00" arrivalLane="bot0_1_0" arrivalPos="240.00" arrivalSpeed="9.08" duration="88.00" routeLength="493.70" waitingTime="25.00" waitingCount="1" stopTime="0.00" timeLoss="33.65" rerouteNo="0" devices="tripinfo_flow_20.9" vType="human" speedFactor="0.83" vaporized=""/>
    <tripinfo id="flow_30.9" depart="55.00" departLane="top0_1_0" departPos="5.10" departSpeed="5.00" departDelay="0.00" arrival="143.00" arrivalLane="top0_0_0" arrivalPos="240.00" arrivalSpeed="9.60" duration="88.00" routeLength="493.70" waitingTime="26.00" waitingCount="1" stopTime="0.00" timeLoss="35.82" rerouteNo="0" devices="tripinfo_flow_30.9" vType="human" speedFactor="0.87" vaporized=""/>
    <tripinfo id="flow_20.10" depart="61.00" departLane="bot0_0_0" departPos="5.10" departSpeed="5.00" departDelay="0.00" arrival="145.00" arrivalLane="bot0_1_0" arrivalPos="240.00" arrivalSpeed="11.64" duration="84.00" routeLength="493.70" waitingTime="25.00" waitingCount="1" stopTime="0.00" timeLoss="44.06" rerouteNo="0" devices="tripinfo_flow_20.10" vType="human" speedFactor="1.13" vaporized=""/>
    <tripinfo id="flow_30.10" depart="61.00" departLane="top0_1_0" departPos="5.10" departSpeed="5.00" departDelay="0.00" arrival="145.00" arrivalLane="top0_0_0" arrivalPos="240.00" arrivalSpeed="10.14" duration="84.00" routeLength="493.70" waitingTime="23.00" waitingCount="1" stopTime="0.00" timeLoss="35.68" rerouteNo="0" devices="tripinfo_flow_30.10" vType="human" speedFactor="0.93" vaporized=""/>
    <tripinfo id="flow_20.11" depart="67.00" departLane="bot0_0_0" departPos="5.10" departSpeed="5.00" departDelay="0.00" arrival="147.00" arrivalLane="bot0_1_0" arrivalPos="240.00" arrivalSpeed="12.15" duration="80.00" routeLength="493.70" waitingTime="22.00" waitingCount="1" stopTime="0.00" timeLoss="41.52" rerouteNo="0" devices="tripinfo_flow_20.11" vType="human" speedFactor="1.18" vaporized=""/>
    <tripinfo id="flow_30.11" depart="67.00" departLane="top0_1_0" departPos="5.10" departSpeed="5.00" departDelay="0.00" arrival="147.00" arrivalLane="top0_0_0" arrivalPos="240.00" arrivalSpeed="11.94" duration="80.00" routeLength="493.70" waitingTime="22.00" waitingCount="1" stopTime="0.00" timeLoss="40.80" rerouteNo="0" devices="tripinfo_flow_30.11" vType="human" speedFactor="1.15" vaporized=""/>
    <tripinfo id="flow_20.12" depart="73.00" departLane="bot0_0_0" departPos="5.10" departSpeed="5.00" departDelay="0.00" arrival="149.00" arrivalLane="bot0_1_0" arrivalPos="240.00" arrivalSpeed="10.85" duration="76.00" routeLength="493.70" waitingTime="16.00" waitingCount="1" stopTime="0.00" timeLoss="31.27" rerouteNo="0" devices="tripinfo_flow_20.12" vType="human" speedFactor="1.01" vaporized=""/>
    <tripinfo id="flow_30.12" depart="73.00" departLane="top0_1_0" departPos="5.10" departSpeed="5.00" departDelay="0.00" arrival="149.00" arrivalLane="top0_0_0" arrivalPos="240.00" arrivalSpeed="12.20" duration="76.00" routeLength="493.70" waitingTime="18.00" waitingCount="1" stopTime="0.00" timeLoss="37.31" rerouteNo="0" devices="tripinfo_flow_30.12" vType="human" speedFactor="1.17" vaporized=""/>
    <tripinfo id="flow_30.13" depart="79.00" departLane="top0_1_0" departPos="5.10" departSpeed="5.00" departDelay="0.00" arrival="151.00" arrivalLane="top0_0_0" arrivalPos="240.00" arrivalSpeed="11.01" duration="72.00" routeLength="493.70" waitingTime="12.00" waitingCount="1" stopTime="0.00" timeLoss="27.92" rerouteNo="0" devices="tripinfo_flow_30.13" vType="human" speedFactor="1.02" vaporized=""/>
    <tripinfo id="flow_20.13" depart="79.00" departLane="bot0_0_0" departPos="5.10" departSpeed="5.00" departDelay="0.00" arrival="152.00" arrivalLane="bot0_1_0" arrivalPos="240.00" arrivalSpeed="10.87" duration="73.00" routeLength="493.70" waitingTime="11.00" waitingCount="1" stopTime="0.00" timeLoss="27.09" rerouteNo="0" devices="tripinfo_flow_20.13" vType="human" speedFactor="0.99" vaporized=""/>
    <tripinfo id="flow_20.14" depart="85.00" departLane="bot0_0_0" departPos="5.10" departSpeed="5.00" departDelay="0.00" arrival="154.00" arrivalLane="bot0_1_0" arrivalPos="240.00" arrivalSpeed="11.70" duration="69.00" routeLength="493.70" waitingTime="8.00" waitingCount="1" stopTime="0.00" timeLoss="27.55" rerouteNo="0" devices="tripinfo_flow_20.14" vType="human" speedFactor="1.10" vaporized=""/>
    <tripinfo id="flow_30.14" depart="85.00" departLane="top0_1_0" departPos="5.10" departSpeed="5.00" departDelay="0.00" arrival="154.00" arrivalLane="top0_0_0" arrivalPos="240.00" arrivalSpeed="9.89" duration="69.00" routeLength="493.70" waitingTime="6.00" waitingCount="1" stopTime="0.00" timeLoss="19.17" rerouteNo="0" devices="tripinfo_flow_30.14" vType="human" speedFactor="0.90" vaporized=""/>
    <tripinfo id="flow_20.15" depart="91.00" departLane="bot0_0_0" departPos="5.10" departSpeed="5.00" departDelay="0.00" arrival="156.00" arrivalLane="bot0_1_0" arrivalPos="240.00" arrivalSpeed="11.10" duration="65.00" routeLength="493.70" waitingTime="3.00" waitingCount="1" stopTime="0.00" timeLoss="20.94" rerouteNo="0" devices="tripinfo_flow_20.15" vType="human" speedFactor="1.03" vaporized=""/>
    <tripinfo id="flow_30.15" depart="91.00" departLane="top0_1_0" departPos="5.10" departSpeed="5.00" departDelay="0.00" arrival="157.00" arrivalLane="top0_0_0" arrivalPos="240.00" arrivalSpeed="10.48" duration="66.00" routeLength="493.70" waitingTime="2.00" waitingCount="1" stopTime="0.00" timeLoss="18.47" rerouteNo="0" devices="tripinfo_flow_30.15" vType="human" speedFactor="0.96" vaporized=""/>
    <tripinfo id="flow_20.16" depart="97.00" departLane="bot0_0_0" departPos="5.10" departSpeed="5.00" departDelay="0.00" arrival="158.00" arrivalLane="bot0_1_0" arrivalPos="240.00" arrivalSpeed="11.59" duration="61.00" routeLength="493.70" waitingTime="0.00" waitingCount="0" stopTime="0.00" timeLoss="19.43" rerouteNo="0" devices="tripinfo_flow_20.16" vType="human" speedFactor="1.09" vaporized=""/>
    <tripinfo id="flow_30.16" depart="97.00" departLane="top0_1_0" departPos="5.10" departSpeed="5.00" departDelay="0.00" arrival="159.00" arrivalLane="top0_0_0" arrivalPos="240.00" arrivalSpeed="11.13" duration="62.00" routeLength="493.70" waitingTime="0.00" waitingCount="0" stopTime="0.00" timeLoss="18.26" rerouteNo="0" devices="tripinfo_flow_30.16" vType="human" speedFactor="1.04" vaporized=""/>
    <tripinfo id="flow_20.17" depart="103.00" departLane="bot0_0_0" departPos="5.10" departSpeed="5.00" departDelay="0.00" arrival="160.00" arrivalLane="bot0_1_0" arrivalPos="240.00" arrivalSpeed="10.79" duration="57.00" routeLength="493.70" waitingTime="0.00" waitingCount="0" stopTime="0.00" timeLoss="11.88" rerouteNo="0" devices="tripinfo_flow_20.17" vType="human" speedFactor="1.00" vaporized=""/>
    <tripinfo id="flow_30.17" depart="103.00" departLane="top0_1_0" departPos="5.10" departSpeed="5.00" departDelay="0.00" arrival="162.00" arrivalLane="top0_0_0" arrivalPos="240.00" arrivalSpeed="9.89" duration="59.00" routeLength="493.70" waitingTime="0.00" waitingCount="0" stopTime="0.00" timeLoss="8.57" rerouteNo="0" devices="tripinfo_flow_30.17" vType="human" speedFactor="0.90" vaporized=""/>
    <tripinfo id="flow_20.18" depart="109.00" departLane="bot0_0_0" departPos="5.10" departSpeed="5.00" departDelay="0.00" arrival="164.00" arrivalLane="bot0_1_0" arrivalPos="240.00" arrivalSpeed="9.64" duration="55.00" routeLength="493.70" waitingTime="0.00" waitingCount="0" stopTime="0.00" timeLoss="3.12" rerouteNo="0" devices="tripinfo_flow_20.18" vType="human" speedFactor="0.88" vaporized=""/>
    <tripinfo id="flow_30.18" depart="109.00" departLane="top0_1_0" departPos="5.10" departSpeed="5.00" departDelay="0.00" arrival="165.00" arrivalLane="top0_0_0" arrivalPos="240.00" arrivalSpeed="9.34" duration="56.00" routeLength="493.70" waitingTime="0.00" waitingCount="0" stopTime="0.00" timeLoss="3.06" rerouteNo="0" devices="tripinfo_flow_30.18" vType="human" speedFactor="0.85" vaporized=""/>
    <tripinfo id="flow_30.19" depart="115.00" departLane="top0_1_0" departPos="5.10" departSpeed="5.00" departDelay="0.00" arrival="167.00" arrivalLane="top0_0_0" arrivalPos="240.00" arrivalSpeed="11.90" duration="52.00" routeLength="493.70" waitingTime="0.00" waitingCount="0" stopTime="0.00" timeLoss="13.18" rerouteNo="0" devices="tripinfo_flow_30.19" vType="human" speedFactor="1.17" vaporized=""/>
    <tripinfo id="flow_20.19" depart="115.00" departLane="bot0_0_0" departPos="5.10" departSpeed="5.00" departDelay="0.00" arrival="169.00" arrivalLane="bot0_1_0" arrivalPos="240.00" arrivalSpeed="9.40" duration="54.00" routeLength="493.70" waitingTime="0.00" waitingCount="0" stopTime="0.00" timeLoss="1.13" rerouteNo="0" devices="tripinfo_flow_20.19" vType="human" speedFactor="0.85" vaporized=""/>
    <tripinfo id="flow_10.5" depart="101.00" departLane="right0_0_0" departPos="5.10" departSpeed="5.00" departDelay="0.00" arrival="171.00" arrivalLane="right1_0_0" arrivalPos="240.00" arrivalSpeed="11.97" duration="70.00" routeLength="493.70" waitingTime="19.00" waitingCount="1" stopTime="0.00" timeLoss="28.54" rerouteNo="0" devices="tripinfo_flow_10.5" vType="human" speedFactor="1.09" vaporized=""/>
    <tripinfo id="flow_00.5" depart="101.00" departLane="left1_0_0" departPos="5.10" departSpeed="5.00" departDelay="0.00" arrival="172.00" arrivalLane="left0_0_0" arrivalPos="240.00" arrivalSpeed="11.48" duration="71.00" routeLength="493.70" waitingTime="19.00" waitingCount="1" stopTime="0.00" timeLoss="27.60" rerouteNo="0" devices="tripinfo_flow_00.5" vType="human" speedFactor="1.04" vaporized=""/>
    <tripinfo id="flow_10.6" depart="121.00" departLane="right0_0_0" departPos="5.10" departSpeed="5.00" departDelay="0.00" arrival="175.00" arrivalLane="right1_0_0" arrivalPos="240.00" arrivalSpeed="12.04" duration="54.00" routeLength="493.70" waitingTime="1.00" waitingCount="1" stopTime="0.00" timeLoss="12.11" rerouteNo="0" devices="tripinfo_flow_10.6" vType="human" speedFactor="1.10" vaporized=""/>
    <tripinfo id="flow_00.6" depart="121.00" departLane="left1_0_0" departPos="5.10" departSpeed="5.00" departDelay="0.00" arrival="176.00" arrivalLane="left0_0_0" arrivalPos="240.00" arrivalSpeed="11.18" duration="55.00" routeLength="493.70" waitingTime="0.00" waitingCount="0" stopTime="0.00" timeLoss="10.30" rerouteNo="0" devices="tripinfo_flow_00.6" vType="human" speedFactor="1.02" vaporized=""/>
    <tripinfo id="flow_00.7" depart="141.00" departLane="left1_0_0" departPos="5.10" departSpeed="5.00" departDelay="0.00" arrival="186.00" arrivalLane="left0_0_0" arrivalPos="240.00" arrivalSpeed="11.17" duration="45.00" routeLength="493.70" waitingTime="0.00" waitingCount="0" stopTime="0.00" timeLoss="0.79" rerouteNo="0" devices="tripinfo_flow_00.7" vType="human" speedFactor="1.02" vaporized=""/>
    <tripinfo id="flow_10.7" depart="141.00" departLane="right0_0_0" departPos="5.10" departSpeed="5.00" departDelay="0.00" arrival="188.00" arrivalLane="right1_0_0" arrivalPos="240.00" arrivalSpeed="10.86" duration="47.00" routeLength="493.70" waitingTime="0.00" waitingCount="0" stopTime="0.00" timeLoss="0.70" rerouteNo="0" devices="tripinfo_flow_10.7" vType="human" speedFactor="0.99" vaporized=""/>
    <tripinfo id="flow_20.20" depart="121.00" departLane="bot0_0_0" departPos="5.10" departSpeed="5.00" departDelay="0.00" arrival="210.00" arrivalLane="bot0_1_0" arrivalPos="240.00" arrivalSpeed="11.03" duration="89.00" routeLength="493.70" waitingTime="35.00" waitingCount="1" stopTime="0.00" timeLoss="43.68" rerouteNo="0" devices="tripinfo_flow_20.20" vType="human" speedFactor="1.00" vaporized=""/>
    <tripinfo id="flow_30.20" depart="121.00" departLane="top0_1_0" departPos="5.10" departSpeed="5.00" departDelay="0.00" arrival="210.00" arrivalLane="top0_0_0" arrivalPos="240.00" arrivalSpeed="10.96" duration="89.00" routeLength="493.70" waitingTime="35.00" waitingCount="1" stopTime="0.00" timeLoss="43.51" rerouteNo="0" devices="tripinfo_flow_30.20" vType="human" speedFactor="1.00" vaporized=""/>
    <tripinfo id="flow_30.21" depart="127.00" departLane="top0_1_0" departPos="5.10" departSpeed="5.00" departDelay="0.00" arrival="212.00" arrivalLane="top0_0_0" arrivalPos="240.00" arrivalSpeed="12.26" duration="85.00" routeLength="493.70" waitingTime="33.00" waitingCount="1" stopTime="0.00" timeLoss="45.48" rerouteNo="0" devices="tripinfo_flow_30.21" vType="human" speedFactor="1.14" vaporized=""/>
    <tripinfo id="flow_20.21" depart="127.00" departLane="bot0_0_0" departPos="5.10" departSpeed="5.00" departDelay="0.00" arrival="215.00" arrivalLane="bot0_1_0" arrivalPos="240.00" arrivalSpeed="9.89" duration="88.00" routeLength="493.70" waitingTime="29.00" waitingCount="1" stopTime="0.00" timeLoss="38.01" rerouteNo="0" devices="tripinfo_flow_20.21" vType="human" speedFactor="0.90" vaporized=""/>
    <tripinfo id="flow_30.22" depart="133.00" departLane="top0_1_0" departPos="5.10" departSpeed="5.00" departDelay="0.00" arrival="216.00" arrivalLane="top0_0_0" arrivalPos="240.00" arrivalSpeed="10.66" duration="83.00" routeLength="493.70" waitingTime="26.00" waitingCount="1" stopTime="0.00" timeLoss="36.57" rerouteNo="0" devices="tripinfo_flow_30.22" vType="human" speedFactor="0.97" vaporized=""/>
    <tripinfo id="flow_20.22" depart="133.00" departLane="bot0_0_0" departPos="5.10" departSpeed="5.00" departDelay="0.00" arrival="218.00" arrivalLane="bot0_1_0" arrivalPos="240.00" arrivalSpeed="11.18" duration="85.00" routeLength="493.70" waitingTime="27.00" waitingCount="1" stopTime="0.00" timeLoss="40.30" rerouteNo="0" devices="tripinfo_flow_20.22" vType="human" speedFactor="1.02" vaporized=""/>
    <tripinfo id="flow_30.23" depart="139.00" departLane="top0_1_0" departPos="5.10" departSpeed="5.00" departDelay="0.00" arrival="218.00" arrivalLane="top0_0_0" arrivalPos="240.00" arrivalSpeed="11.96" duration="79.00" routeLength="493.70" waitingTime="24.00" waitingCount="1" stopTime="0.00" timeLoss="38.82" rerouteNo="0" devices="tripinfo_flow_30.23" vType="human" speedFactor="1.12" vaporized=""/>
    <tripinfo id="flow_20.23" depart="139.00" departLane="bot0_0_0" departPos="5.10" departSpeed="5.00" departDelay="0.00" arrival="220.00" arrivalLane="bot0_1_0" arrivalPos="240.00" arrivalSpeed="11.61" duration="81.00" routeLength="493.70" waitingTime="23.00" waitingCount="1" stopTime="0.00" timeLoss="38.86" rerouteNo="0" devices="tripinfo_flow_20.23" vType="human" speedFactor="1.08" vaporized=""/>
    <tripinfo id="flow_20.24" depart="145.00" departLane="bot0_0_0" departPos="5.10" departSpeed="5.00" departDelay="0.00" arrival="223.00" arrivalLane="bot0_1_0" arrivalPos="240.00" arrivalSpeed="10.30" duration="78.00" routeLength="493.70" waitingTime="17.00" waitingCount="1" stopTime="0.00" timeLoss="29.52" rerouteNo="0" devices="tripinfo_flow_20.24" vType="human" speedFactor="0.94" vaporized=""/>
    <tripinfo id="flow_30.24" depart="145.00" departLane="top0_1_0" departPos="5.10" departSpeed="5.00" departDelay="0.00" arrival="223.00" arrivalLane="top0_0_0" arrivalPos="240.00" arrivalSpeed="9.71" duration="78.00" routeLength="493.70" waitingTime="16.00" waitingCount="1" stopTime="0.00" timeLoss="26.84" rerouteNo="0" devices="tripinfo_flow_30.24" vType="human" speedFactor="0.88" vaporized=""/>
    <tripinfo id="flow_20.25" depart="151.00" departLane="bot0_0_0" departPos="5.10" departSpeed="5.00" departDelay="0.00" arrival="226.00" arrivalLane="bot0_1_0" arrivalPos="240.00" arrivalSpeed="9.96" duration="75.00" routeLength="493.70" waitingTime="12.00" waitingCount="1" stopTime="0.00" timeLoss="25.05" rerouteNo="0" devices="tripinfo_flow_20.25" vType="human" speedFactor="0.91" vaporized=""/>
    <tripinfo id="flow_30.25" depart="151.00" departLane="top0_1_0" departPos="5.10" departSpeed="5.00" departDelay="0.00" arrival="226.00" arrivalLane="top0_0_0" arrivalPos="240.00" arrivalSpeed="10.04" duration="75.00" routeLength="493.70" waitingTime="12.00" waitingCount="1" stopTime="0.00" timeLoss="25.53" rerouteNo="0" devices="tripinfo_flow_30.25" vType="human" speedFactor="0.91" vaporized=""/>
    <tripinfo id="flow_20.26" depart="157.00" departLane="bot0_0_0" departPos="5.10" departSpeed="5.00" departDelay="0.00" arrival="228.00" arrivalLane="bot0_1_0" arrivalPos="240.00" arrivalSpeed="11.13" duration="71.00" routeLength="493.70" waitingTime="10.00" waitingCount="1" stopTime="0.00" timeLoss="27.48" rerouteNo="0" devices="tripinfo_flow_20.26" vType="human" speedFactor="1.04" vaporized=""/>